"Formula","Smiles","EA (eV)","IE (eV)","Charge","Svg","Task Id","MW","Oxidation Hydrogen","Reduction Hydrogen","Oxidation Lithium","Reduction Lithium","Oxidation Magnesium","Reduction Magnesium","Point Group"
"H27 C20 N2 O4 F3","CN1C=C[C]([C]2C=CN(C)C=C2OCCOCCOCCOC)C(=C1)C(F)(F)F","-0.054","2.046","0","Multiple Molecules - Open Babel Depiction                                                                          .  . F F F N N O O O O H H H H H H H H H H H H H H H H H H H H H H H H H H H","mol-75405","416.435","-0.994","-3.094","2.046","-0.054","1.376","-0.724","C1"
"H15 C14 N2 O1 F3","CN1C=C[C]([C]2C=CN(C)C=C2OC)C(=C1)C(F)(F)F","-0.042","2.05","0","Multiple Molecules - Open Babel Depiction                                                          .  . F F F N N O H H H H H H H H H H H H H H H","mol-111124","284.277","-0.99","-3.082","2.05","-0.042","1.38","-0.712","C1"
"H13 C13 N2 O1 F3","Cn1cc/c(=c/2\ccn(C)c(c2)O)/c(c1)C(F)(F)F","-0.06","2.052","0","Multiple Molecules - Open Babel Depiction                                           F F F N N O H H H H H H H H H H H H H","mol-109715","270.25","-0.988","-3.1","2.052","-0.06","1.382","-0.73","C1"
"H19 C16 N2 O2 F3","CN1C=C[C]([C]2C=CN(C)C=C2OCCOC)C(=C1)C(F)(F)F","-0.044","2.062","0","Multiple Molecules - Open Babel Depiction                                                       .  . F F F N N O O H H H H H H H H H H H H H H H H H H H","mol-111013","328.329","-0.978","-3.084","2.062","-0.044","1.392","-0.714","C1"
"H16 C15 N3 O1 F3","C/C(=N/c1cn(C)cc/c/1=c/1\ccn(C)c(c1)C(F)(F)F)/O","0.358","2.063","0","Multiple Molecules - Open Babel Depiction                                                  F F F N N N O H H H H H H H H H H H H H H H H","mol-112457","311.302","-0.977","-2.682","2.063","0.358","1.393","-0.312","C1"
"H23 C18 N2 O3 F3","Cn1cc/c(=c/2\ccn(C)c(c2)C(F)(F)F)/c(c1)OCCOCCOC","","2.07","0","Multiple Molecules - Open Babel Depiction                                                            F F F N N O O O H H H H H H H H H H H H H H H H H H H H H H H","mol-112081","372.382","-0.97","","2.07","","1.4","","C1"
"H16 C15 N3 O1 F3","C/C(=N\c1cn(C)cc(c1=c1ccn(C)cc1)C(F)(F)F)/O","-0.174","2.073","0","Multiple Molecules - Open Babel Depiction                                                  F F F N N N O H H H H H H H H H H H H H H H H","mol-112334","311.302","-0.967","-3.214","2.073","-0.174","1.403","-0.844","C1"
"H19 C15 N2 O2 F1","Cn1ccc(=c2ccn(cc2)CF)c(c1)OCCOC","-0.098","2.074","0","Multiple Molecules - Open Babel Depiction                                                  F N N O O H H H H H H H H H H H H H H H H H H H","mol-110052","278.322","-0.966","-3.138","2.074","-0.098","1.404","-0.768","C1"
"H13 C12 N2 O1 F1","Cn1ccc(=c2ccn(CF)c(c2)O)cc1","-0.242","2.082","0","Multiple Molecules - Open Babel Depiction                                        F N N O H H H H H H H H H H H H H","mol-102476","220.243","-0.958","-3.282","2.082","-0.242","1.412","-0.912","C1"
"H15 C14 N2 O1 F1","CC(=O)Cn1ccc(=c2ccn(C)cc2F)cc1","0.35","2.082","0","Multiple Molecules - Open Babel Depiction                                             F N N O H H H H H H H H H H H H H H H","mol-110503","246.28","-0.958","-2.69","2.082","0.35","1.412","-0.32","C1"
"H16 C15 N3 O1 F3","C/C(=N/c1c(=c2ccn(C)cc2)ccn(C)c1C(F)(F)F)/O","0.389","2.086","0","Multiple Molecules - Open Babel Depiction                                                  F F F N N N O H H H H H H H H H H H H H H H H","mol-111540","311.302","-0.954","-2.651","2.086","0.389","1.416","-0.281","C1"
"H13 C13 N2 O1 F3","CN1C=C[C]([C]2C=CN(C)C=C2O)C(=C1)C(F)(F)F","0.121","2.09","0","Multiple Molecules - Open Babel Depiction                                                  .  . F F F N N O H H H H H H H H H H H H H","mol-102573","270.25","-0.95","-2.919","2.09","0.121","1.42","-0.549","C1"
"H13 C12 N2 O1 F1","Cn1ccc(=c2ccn(CO)c(c2)F)cc1","-0.065","2.093","0","Multiple Molecules - Open Babel Depiction                                        F N N O H H H H H H H H H H H H H","mol-89318","220.243","-0.947","-3.105","2.093","-0.065","1.423","-0.735","C1"
"H19 C15 N2 O2 F1","Cn1ccc(=c2ccn(cc2)COCCOC)cc1F","-0.18","2.101","0","Multiple Molecules - Open Babel Depiction                                                  F N N O O H H H H H H H H H H H H H H H H H H H","mol-110391","278.322","-0.939","-3.22","2.101","-0.18","1.431","-0.85","C1"
"H16 C14 N3 O1 F1","C/C(=N\Cn1ccc(=c2ccn(cc2)CF)cc1)/O","-0.136","2.103","0","Multiple Molecules - Open Babel Depiction                                               F N N N O H H H H H H H H H H H H H H H H","mol-111115","261.295","-0.937","-3.176","2.103","-0.136","1.433","-0.806","C1"
"H16 C14 N3 O1 F1","C/C(=N/c1cn(C)ccc1=c1ccn(cc1)CF)/O","0.033","2.104","0","Multiple Molecules - Open Babel Depiction                                               F N N N O H H H H H H H H H H H H H H H H","mol-111495","261.295","-0.936","-3.007","2.104","0.033","1.434","-0.637","C1"
"H13 C13 N2 O1 F3","Cn1ccc(=c2cc(C(F)(F)F)n(C)cc2O)cc1","0.463","2.107","0","Multiple Molecules - Open Babel Depiction                                           F F F N N O H H H H H H H H H H H H H","mol-105201","270.25","-0.933","-2.577","2.107","0.463","1.437","-0.207","C1"
"H23 C17 N2 O3 F1","Cn1ccc(=c2ccn(cc2)COCCOCCOC)c(c1)F","","2.11","0","Multiple Molecules - Open Babel Depiction                                                         F N N O O O H H H H H H H H H H H H H H H H H H H H H H H","mol-110171","322.375","-0.93","","2.11","","1.44","","C1"
"H13 C13 N2 O1 F3","CN1C=C[C]([C]2C=CN(C)C(=C2)C(F)(F)F)C(=C1)O","0.48","2.112","0","Multiple Molecules - Open Babel Depiction                                                  .  . F F F N N O H H H H H H H H H H H H H","mol-108961","270.25","-0.928","-2.56","2.112","0.48","1.442","-0.19","C1"
"H27 C19 N2 O4 F1","Cn1ccc(=c2ccn(cc2)COCCOCCOCCOC)cc1F","-0.16","2.115","0","Multiple Molecules - Open Babel Depiction                                                                F N N O O O O H H H H H H H H H H H H H H H H H H H H H H H H H H H","mol-186331","366.427","-0.925","-3.2","2.115","-0.16","1.445","-0.83","C1"
"H27 C19 N2 O4 F1","Cn1ccc(=c2ccn(cc2)CF)cc1OCCOCCOCCOC","","2.115","0","Multiple Molecules - Open Babel Depiction                                                                F N N O O O O H H H H H H H H H H H H H H H H H H H H H H H H H H H","mol-73350","366.427","-0.925","4854.302","2.115","4857.342","1.445","4856.672","C1"
"H23 C17 N2 O3 F1","Cn1ccc(=c2ccn(COCCOCCOC)c(c2)F)cc1","-0.181","2.117","0","Multiple Molecules - Open Babel Depiction                                                         F N N O O O H H H H H H H H H H H H H H H H H H H H H H H","mol-110390","322.375","-0.923","-3.221","2.117","-0.181","1.447","-0.851","C1"
"H27 C19 N2 O4 F1","Cn1ccc(=c2ccn(cc2F)COCCOCCOCCOC)cc1","-0.182","2.126","0","Multiple Molecules - Open Babel Depiction                                                                F N N O O O O H H H H H H H H H H H H H H H H H H H H H H H H H H H","mol-186322","366.427","-0.914","-3.222","2.126","-0.182","1.456","-0.852","C1"
"H15 C14 N2 O1 F3","Cn1ccc(=c2cc(C(F)(F)F)n(C)cc2OC)cc1","0.376","2.129","0","Multiple Molecules - Open Babel Depiction                                              F F F N N O H H H H H H H H H H H H H H H","mol-110960","284.277","-0.911","-2.664","2.129","0.376","1.459","-0.294","C1"
"H23 C17 N2 O3 F1","Cn1ccc(=c2ccn(cc2F)COCCOCCOC)cc1","-0.162","2.13","0","Multiple Molecules - Open Babel Depiction                                                         F N N O O O H H H H H H H H H H H H H H H H H H H H H H H","mol-110481","322.375","-0.91","-3.202","2.13","-0.162","1.46","-0.832","C1"
"H27 C20 N2 O4 F3","Cn1cc/c(=c/2\ccn(C)c(c2)OCCOCCOCCOC)/cc1C(F)(F)F","0.247","2.134","0","Multiple Molecules - Open Babel Depiction                                                                   F F F N N O O O O H H H H H H H H H H H H H H H H H H H H H H H H H H H","mol-75359","416.435","-0.906","-2.793","2.134","0.247","1.464","-0.423","C1"
"H23 C17 N2 O3 F1","Cn1ccc(=c2ccn(cc2)CF)c(c1)OCCOCCOC","-0.105","2.134","0","Multiple Molecules - Open Babel Depiction                                                         F N N O O O H H H H H H H H H H H H H H H H H H H H H H H","mol-110251","322.375","-0.906","-3.145","2.134","-0.105","1.464","-0.775","C1"
"H16 C14 N3 O1 F1","C/C(=N/c1cc(=c2ccn(C)cc2)ccn1CF)/O","0.215","2.144","0","Multiple Molecules - Open Babel Depiction                                               F N N N O H H H H H H H H H H H H H H H H","mol-111000","261.295","-0.896","-2.825","2.144","0.215","1.474","-0.455","C1"
"H16 C15 N3 O1 F3","C/C(=N\Cn1ccc(=c2ccn(C)cc2)c(c1)C(F)(F)F)/O","-0.132","2.149","0","Multiple Molecules - Open Babel Depiction                                                  F F F N N N O H H H H H H H H H H H H H H H H","mol-112699","311.302","-0.891","-3.172","2.149","-0.132","1.479","-0.802","C1"
"H23 C17 N2 O3 F1","Cn1ccc(=c2ccn(cc2)CF)cc1OCCOCCOC","-0.2","2.156","0","Multiple Molecules - Open Babel Depiction                                                         F N N O O O H H H H H H H H H H H H H H H H H H H H H H H","mol-110157","322.375","-0.884","-3.24","2.156","-0.2","1.486","-0.87","C1"
"H15 C14 N2 O1 F3","COCn1ccc(=c2ccn(cc2)CC(F)(F)F)cc1","-0.307","2.164","0","Multiple Molecules - Open Babel Depiction                                              F F F N N O H H H H H H H H H H H H H H H","mol-73587","284.277","-0.876","-3.347","2.164","-0.307","1.494","-0.977","C1v"
"H16 C15 N3 O1 F3","C/C(=N\Cn1cc/c(=c/2\ccn(C)cc2C(F)(F)F)/cc1)/O","-0.231","2.166","0","Multiple Molecules - Open Babel Depiction                                                  F F F N N N O H H H H H H H H H H H H H H H H","mol-112702","311.302","-0.874","-3.271","2.166","-0.231","1.496","-0.901","C1"
"H15 C14 N2 O1 F3","Cn1ccc(=C2C=CN(C)[C]([C]2C(F)(F)F)OC)cc1","-0.17","2.172","0","Multiple Molecules - Open Babel Depiction                                                        .  . F F F N N O H H H H H H H H H H H H H H H","mol-110224","284.277","-0.868","-3.21","2.172","-0.17","1.502","-0.84","C1"
"H13 C14 N2 O2 F3","Cn1ccc(=c2ccn(cc2C(F)(F)F)CC(=O)O)cc1","0.138","2.195","0","Multiple Molecules - Open Babel Depiction                                              F F F N N O O H H H H H H H H H H H H H","mol-110340","298.26","-0.845","-2.902","2.195","0.138","1.525","-0.532","C1"
"H27 C20 N2 O4 F3","Cn1ccc(=c2ccn(cc2C(F)(F)F)COCCOCCOCCOC)cc1","-0.023","2.214","0","Multiple Molecules - Open Babel Depiction                                                                   F F F N N O O O O H H H H H H H H H H H H H H H H H H H H H H H H H H H","mol-73312","416.435","-0.826","-3.063","2.214","-0.023","1.544","-0.693","C1"
"H13 C13 N2 O2 F1","Cn1cc/c(=c\2/ccn(C)c(c2)C(=O)O)/c(c1)F","0.86","2.216","0","Multiple Molecules - Open Babel Depiction                                           F N N O O H H H H H H H H H H H H H","mol-110820","248.253","-0.824","-2.18","2.216","0.86","1.546","0.19","C1"
"H13 C13 N2 O2 F1","Cn1ccc(=c2cc(F)n(C)cc2C(=O)O)cc1","0.509","2.22","0","Multiple Molecules - Open Babel Depiction                                           F N N O O H H H H H H H H H H H H H","mol-103499","248.253","-0.82","-2.531","2.22","0.509","1.55","-0.161","C1"
"H13 C13 N2 O2 F1","Cn1cc/c(=c/2\ccn(C)c(c2)F)/cc1C(=O)O","0.88","2.225","0","Multiple Molecules - Open Babel Depiction                                           F N N O O H H H H H H H H H H H H H","mol-103003","248.253","-0.815","-2.16","2.225","0.88","1.555","0.21","C1"
"H15 C14 N2 O1 F3","Cn1ccc(=c2ccn(cc2)COC)c(c1)C(F)(F)F","-0.12","2.235","0","Multiple Molecules - Open Babel Depiction                                              F F F N N O H H H H H H H H H H H H H H H","mol-110004","284.277","-0.805","-3.16","2.235","-0.12","1.565","-0.79","C1"
"H15 C15 N2 O1 F3","CC(=O)Cn1ccc(=c2ccn(C)c(c2)C(F)(F)F)cc1","0.309","2.236","0","Multiple Molecules - Open Babel Depiction                                                F F F N N O H H H H H H H H H H H H H H H","mol-110625","296.288","-0.804","-2.731","2.236","0.309","1.566","-0.361","C1"
"H13 C13 N2 O2 F1","Cn1cc/c(=c/2\ccn(C)c(c2)C(=O)O)/c(c1)F","0.827","2.237","0","Multiple Molecules - Open Babel Depiction                                           F N N O O H H H H H H H H H H H H H","mol-103114","248.253","-0.803","-2.213","2.237","0.827","1.567","0.157","C1"
"H15 C14 N2 O1 F3","Cn1ccc(=c2ccn(C)c(c2OC)C(F)(F)F)cc1","0.408","2.237","0","Multiple Molecules - Open Babel Depiction                                              F F F N N O H H H H H H H H H H H H H H H","mol-110023","284.277","-0.803","-2.632","2.237","0.408","1.567","-0.262","C1"
"H15 C14 N2 O1 F1","CC(=O)C1=CN(C)C=C[C]1[C]1C=CN(C)C=C1F","0.519","2.247","0","Multiple Molecules - Open Babel Depiction                                                    .  . F N N O H H H H H H H H H H H H H H H","mol-110530","246.28","-0.793","-2.521","2.247","0.519","1.577","-0.151","C1"
"H13 C14 N2 O2 F3","Cn1ccc(=c2ccn(CC(=O)O)c(c2)C(F)(F)F)cc1","0.346","2.253","0","Multiple Molecules - Open Babel Depiction                                              F F F N N O O H H H H H H H H H H H H H","mol-110342","298.26","-0.787","-2.694","2.253","0.346","1.583","-0.324","C1"
"H13 C13 N2 O1 F3","Cn1ccc(=c2ccn(cc2)CO)cc1C(F)(F)F","0.266","2.256","0","Multiple Molecules - Open Babel Depiction                                           F F F N N O H H H H H H H H H H H H H","mol-108914","270.25","-0.784","-2.774","2.256","0.266","1.586","-0.404","C1"
"H15 C14 N2 O1 F1","CC(=O)c1cn(C)cc/c/1=c/1\ccn(C)c(c1)F","0.557","2.266","0","Multiple Molecules - Open Babel Depiction                                             F N N O H H H H H H H H H H H H H H H","mol-110523","246.28","-0.774","-2.483","2.266","0.557","1.596","-0.113","C1"
"H13 C14 N2 O2 F3","Cn1ccc(=c2ccn(C)c(c2C(=O)O)C(F)(F)F)cc1","0.918","2.276","0","Multiple Molecules - Open Babel Depiction                                              F F F N N O O H H H H H H H H H H H H H","mol-110485","298.26","-0.764","-2.122","2.276","0.918","1.606","0.248","C1"
"H23 C18 N2 O3 F3","Cn1ccc(=c2ccn(COCCOCCOC)c(c2)C(F)(F)F)cc1","","2.278","0","Multiple Molecules - Open Babel Depiction                                                            F F F N N O O O H H H H H H H H H H H H H H H H H H H H H H H","mol-111663","372.382","-0.762","","2.278","","1.608","","C1"
"H15 C14 N2 O1 F1","CC(=O)c1c(=c2ccn(C)cc2)ccn(C)c1F","0.334","2.284","0","Multiple Molecules - Open Babel Depiction                                             F N N O H H H H H H H H H H H H H H H","mol-110579","246.28","-0.756","-2.706","2.284","0.334","1.614","-0.336","C1"
"H19 C16 N2 O2 F3","Cn1ccc(=c2ccn(cc2)COCCOC)c(c1)C(F)(F)F","-0.13","2.296","0","Multiple Molecules - Open Babel Depiction                                                     F F F N N O O H H H H H H H H H H H H H H H H H H H","mol-110120","328.329","-0.744","-3.17","2.296","-0.13","1.626","-0.8","C1"
"H12 C12 N3 O2 F1","Cn1ccc(=c2ccn(CN(=O)=O)c(c2)F)cc1","1.707","2.296","0","Multiple Molecules - Open Babel Depiction                                           F N N N O O H H H H H H H H H H H H","mol-108835","249.241","-0.744","-1.333","2.296","1.707","1.626","1.037","C1"
"H15 C15 N2 O1 F3","CC(=O)c1cn(ccc1=c1ccn(C)cc1)CC(F)(F)F","0.569","2.302","0","Multiple Molecules - Open Babel Depiction                                                F F F N N O H H H H H H H H H H H H H H H","mol-111058","296.288","-0.738","-2.471","2.302","0.569","1.632","-0.101","C1"
"H12 C12 N3 O2 F1","Cn1ccc(=c2ccn(cc2F)CN(=O)=O)cc1","1.684","2.325","0","Multiple Molecules - Open Babel Depiction                                           F N N N O O H H H H H H H H H H H H","mol-102262","249.241","-0.715","-1.356","2.325","1.684","1.655","1.014","C1"
"H13 C14 N2 O2 F3","Cn1cc/c(=c/2\ccn(C)c(c2)C(=O)O)/c(c1)C(F)(F)F","0.888","2.335","0","Multiple Molecules - Open Babel Depiction                                              F F F N N O O H H H H H H H H H H H H H","mol-110429","298.26","-0.705","-2.152","2.335","0.888","1.665","0.218","C1"
"H15 C15 N2 O1 F3","CC(=O)c1c/c(=c\2/ccn(C)c(c2)C(F)(F)F)/ccn1C","1.065","2.339","0","Multiple Molecules - Open Babel Depiction                                                F F F N N O H H H H H H H H H H H H H H H","mol-110710","296.288","-0.701","-1.975","2.339","1.065","1.669","0.395","C1"
"H13 C14 N2 O2 F3","Cn1ccc(=c2ccn(CC(F)(F)F)c(c2)C(=O)O)cc1","0.85","2.357","0","Multiple Molecules - Open Babel Depiction                                              F F F N N O O H H H H H H H H H H H H H","mol-110020","298.26","-0.683","-2.19","2.357","0.85","1.687","0.18","C1"
"H15 C15 N2 O1 F3","CC(=O)c1cc(=c2ccn(C)cc2)c(cn1C)C(F)(F)F","0.955","2.366","0","Multiple Molecules - Open Babel Depiction                                                F F F N N O H H H H H H H H H H H H H H H","mol-110745","296.288","-0.674","-2.085","2.366","0.955","1.696","0.285","C1"
"H13 C13 N2 O2 F1","Cn1ccc(=c2cc(C(=O)O)n(C)c(c2)F)cc1","0.901","2.378","0","Multiple Molecules - Open Babel Depiction                                           F N N O O H H H H H H H H H H H H H","mol-103316","248.253","-0.662","-2.139","2.378","0.901","1.708","0.231","C1"
"H14 C6 N3 O2 F1","C[NH]1C[C@H](N(C)C[C@H]1F)N([O])O","-0.144","2.379","0","Multiple Molecules - Open Babel Depiction                                         F N N N  . O O H H H H H H H H H H H H H H","mol-117739","179.193","-0.661","-3.184","2.379","-0.144","1.709","-0.814","C1"
"H13 C14 N2 O2 F3","Cn1ccc(=c2cc(C(F)(F)F)n(C)cc2C(=O)O)cc1","0.574","2.403","0","Multiple Molecules - Open Babel Depiction                                              F F F N N O O H H H H H H H H H H H H H","mol-110470","298.26","-0.637","-2.466","2.403","0.574","1.733","-0.096","C1"
"H15 C14 N2 O1 F1","CC(=O)c1cn(C)ccc1=c1ccn(cc1)CF","0.595","2.412","0","Multiple Molecules - Open Babel Depiction                                             F N N O H H H H H H H H H H H H H H H","mol-110681","246.28","-0.628","-2.445","2.412","0.595","1.742","-0.075","C1"
"H12 C12 N3 O2 F1","c1cn(ccc1=c1ccn(cc1)CN(=O)=O)CF","1.784","2.433","0","Multiple Molecules - Open Babel Depiction                                           F N N N O O H H H H H H H H H H H H","mol-108854","249.241","-0.607","-1.256","2.433","1.784","1.763","1.114","Cs"
"H15 C14 N2 O1 F1","CC(=O)c1cc(=c2ccn(C)cc2)ccn1CF","0.955","2.486","0","Multiple Molecules - Open Babel Depiction                                             F N N O H H H H H H H H H H H H H H H","mol-109532","246.28","-0.554","-2.085","2.486","0.955","1.816","0.285","C1"
"H12 C12 N3 O2 F1","CN1C=C[C]([C]2C=CN(C)C=C2N(=O)=O)C(=C1)F","1.331","2.499","0","Multiple Molecules - Open Babel Depiction                                                       .  . F N N N O O H H H H H H H H H H H H","mol-108940","249.241","-0.541","-1.709","2.499","1.331","1.829","0.661","C1"
"H12 C12 N3 O2 F1","Cn1ccc(=c2cc(F)n(C)cc2N(=O)=O)cc1","1.462","2.504","0","Multiple Molecules - Open Babel Depiction                                           F N N N O O H H H H H H H H H H H H","mol-108892","249.241","-0.536","-1.578","2.504","1.462","1.834","0.792","C1"
"H12 C13 N3 O2 F3","Cn1ccc(=c2ccn(C)c(c2N(=O)=O)C(F)(F)F)cc1","1.873","2.513","0","Multiple Molecules - Open Babel Depiction                                              F F F N N N O O H H H H H H H H H H H H","mol-110494","299.248","-0.527","-1.167","2.513","1.873","1.843","1.203","C1"
"H12 C13 N3 O2 F3","CN1C=C[C]([C]2C=CN(C)C=C2N(=O)=O)[C]([CH]1)C(F)(F)F","","2.556","0","Multiple Molecules - Open Babel Depiction                                                    .  .  .  . F F F N N N O O H H H H H H H H H H H H","mol-110609","299.248","-0.484","","2.556","","1.886","","C1"