"Formula","Smiles","EA (eV)","IE (eV)","Charge","Svg","Task Id","MW","Oxidation Hydrogen","Reduction Hydrogen","Oxidation Lithium","Reduction Lithium","Oxidation Magnesium","Reduction Magnesium","Point Group"
"H3 C5 N2 O2 F1","c1cnc(c(C(=O)O)n1)F","1.737","6.259","0","Multiple Molecules - Open Babel Depiction                      F N N O O H H H","mol-88624","142.088","3.219","-1.303","6.259","1.737","5.589","1.067","Cs"
"H2 C5 S1 N1 O2 F3","c1cc(N(=O)=O)sc1C(F)(F)F","2.485","6.278","0","Multiple Molecules - Open Babel Depiction                       F F F N O O S H H","mol-103018","197.135","3.238","-0.555","6.278","2.485","5.608","1.815","C1"
"H6 C5 N1 O2 F1","C1CO[C@H]([C@@H](C#N)O1)F","0.283","6.28","0","H6 C5 N1 O2 F1 - Open Babel Depiction                      F N O O H H H H H H   H6 C5 N1 O2 F1","mol-39145","131.105","3.24","-2.757","6.28","0.283","5.61","-0.387","C1"
"H3 C5 N2 O2 F1","c1c(C(=O)O)nc(cn1)F","1.766","6.281","0","Multiple Molecules - Open Babel Depiction                      F N N O O H H H","mol-88887","142.088","3.241","-1.274","6.281","1.766","5.611","1.096","Cs"
"H3 C6 N2 O2 F3","c1c(C(=O)O)ncc(C(F)(F)F)n1","2","6.287","0","Multiple Molecules - Open Babel Depiction                         F F F N N O O H H H","mol-117080","192.095","3.247","-1.04","6.287","2","5.617","1.33","Cs"
"H4 C6 N1 O2 F1","c1cc(ccc1F)N(=O)=O","1.963","6.299","0","H4 C6 N1 O2 F1 - Open Babel Depiction                       F N O O H H H H   H4 C6 N1 O2 F1","mol-24104","141.1","3.259","-1.077","6.299","1.963","5.629","1.293","C2v"
"H3 C5 N2 O2 F1","c1c(C(=O)O)ncc(F)n1","1.533","6.336","0","Multiple Molecules - Open Babel Depiction                      F N N O O H H H","mol-88885","142.088","3.296","-1.507","6.336","1.533","5.666","0.863","Cs"
"H6 C4 N1 O4 F1","C1CO[C@H]([C@@H](F)O1)N(=O)=O","1.687","6.376","0","H6 C4 N1 O4 F1 - Open Babel Depiction                       F N O O O O H H H H H H   H6 C4 N1 O4 F1","mol-39099","151.093","3.336","-1.353","6.376","1.687","5.706","1.017","C1"
"H4 C7 N1 O2 F3","C(c1c(N(=O)=O)cccc1)(F)(F)F","2.225","6.378","0","Multiple Molecules - Open Babel Depiction                           F F F N O O H H H H","mol-41468","191.107","3.338","-0.815","6.378","2.225","5.708","1.555","C1"
"Mg1 H11 C10 S2 N2 O4 F6","CN(C)c1ccccc1.[N]1[S@@]([O])(O[Mg]O[S@@]1([O])C(F)(F)F)C(F)(F)F","1.858","6.481","1","Multiple Molecules - Open Babel Depiction                                                 N H H H H H H H H H H H  . N S  . O O F F F S O  . O F F F Mg","mol-63848","425.631","3.441","-1.182","6.481","1.858","5.811","1.188","C1"
"Ca1 H7 C5 S2 N2 O5 F6","[N]1[S@@]([O])(O[Ca]O[S@@]1([O])C(F)(F)F)C(F)(F)F.C(=O)N(C)C","0.279","6.492","1","Multiple Molecules - Open Babel Depiction                                       . N S  . O O F F F S O  . O F F F Ca H N O H H H H H H","mol-64985","393.318","3.452","-2.761","6.492","0.279","5.822","-0.391","C1"
"Ca1 H3 C4 S2 N2 O4 F6","CC#N.[N]1[S@@]([O])(O[Ca]O[S@@]1([O])C(F)(F)F)C(F)(F)F","","6.5","1","Multiple Molecules - Open Babel Depiction                                 N H H H  . N S  . O O F F F S O  . O F F F Ca","mol-64764","361.276","3.46","","6.5","","5.83","","C1"
"Ca1 H6 C4 S3 N1 O6 F6","S(=O)(=O)(C)C.[N]1[S@@]([O])(O[Ca]O[S@@]1([O])C(F)(F)F)C(F)(F)F","0.244","6.506","1","Multiple Molecules - Open Babel Depiction                                      S O O H H H H H H  . N S  . O O F F F S O  . O F F F Ca","mol-64566","414.357","3.466","-2.796","6.506","0.244","5.836","-0.426","C1"
"Zn1 H22 C12 S2 N1 O9 F6","COCCOCCOCCOCCOC.[N]1[S@@]([O])(O[Zn]O[S@@]1([O])C(F)(F)F)C(F)(F)F","1.003","6.508","1","Multiple Molecules - Open Babel Depiction                                                              O O O O O H H H H H H H H H H H H H H H H H H H H H H  . N S  . O O F F F S O  . O F F F Zn","mol-64978","567.834","3.468","-2.037","6.508","1.003","5.838","0.333","C1"
"H4 C7 N1 O2 F3","C(F)(F)(F)c1cc(N(=O)=O)ccc1","2.234","6.522","0","Multiple Molecules - Open Babel Depiction                           F F F N O O H H H H","mol-28196","191.107","3.482","-0.806","6.522","2.234","5.852","1.564","C1"
"Mg1 B1 H7 C3 N1 O1 F4","[Mg]O[CH]N(C)C.[B](F)(F)(F)F","","6.524","1","Multiple Molecules - Open Babel Depiction                     Mg B F F F F H  . N O H H H H H H","mol-64687","184.203","3.484","","6.524","","5.854","","C1"
"Mg1 H22 C12 S2 N1 O9 F6","COCCOCCOCCOCCOC.[N]1[S@@]([O])(O[Mg]O[S@@]1([O])C(F)(F)F)C(F)(F)F","1.942","6.532","1","Multiple Molecules - Open Babel Depiction                                                              O O O O O H H H H H H H H H H H H H H H H H H H H H H  . N S  . O O F F F S O  . O F F F Mg","mol-64025","526.73","3.492","-1.098","6.532","1.942","5.862","1.272","C1"
"H3 C6 N2 O4 F1","c1(c(ccc(c1)N(=O)=O)F)N(=O)=O","2.347","6.651","0","Multiple Molecules - Open Babel Depiction                            N F O O N O O H H H","mol-57763","186.097","3.611","-0.693","6.651","2.347","5.981","1.677","C1"
"H2 C5 N3 O2 F3","c1c(C(F)(F)F)nc(cn1)N(=O)=O","2.669","6.68","0","Multiple Molecules - Open Babel Depiction                         F F F N N N O O H H","mol-117269","193.083","3.64","-0.371","6.68","2.669","6.01","1.999","Cs"
"H2 C4 N3 O2 F1","c1c(F)nc(cn1)N(=O)=O","2.633","6.697","0","Multiple Molecules - Open Babel Depiction                      F N N N O O H H","mol-100944","143.076","3.657","-0.407","6.697","2.633","6.027","1.963","Cs"
"H2 C4 N3 O2 F1","c1cnc(c(F)n1)N(=O)=O","2.552","6.704","0","Multiple Molecules - Open Babel Depiction                      F N N N O O H H","mol-101009","143.076","3.664","-0.488","6.704","2.552","6.034","1.882","C1"
"H2 C5 N3 O2 F3","c1cnc(c(C(F)(F)F)n1)N(=O)=O","2.596","6.717","0","Multiple Molecules - Open Babel Depiction                         F F F N N N O O H H","mol-99136","193.083","3.677","-0.444","6.717","2.596","6.047","1.926","C1"
"H2 C5 N3 O2 F3","c1c(C(F)(F)F)ncc(n1)N(=O)=O","2.771","6.731","0","Multiple Molecules - Open Babel Depiction                         F F F N N N O O H H","mol-99089","193.083","3.691","-0.269","6.731","2.771","6.061","2.101","Cs"
"Zn1 B1 H7 C3 N1 O1 F4","[Zn]O[CH]N(C)C.[B](F)(F)(F)F","2.375","6.77","1","Multiple Molecules - Open Babel Depiction                     Zn B F F F F H  . N O H H H H H H","mol-64817","225.307","3.73","-0.665","6.77","2.375","6.1","1.705","C1"
"H2 C4 N3 O2 F1","c1c(F)ncc(n1)N(=O)=O","2.474","6.77","0","Multiple Molecules - Open Babel Depiction                      F N N N O O H H","mol-100904","143.076","3.73","-0.566","6.77","2.474","6.1","1.804","Cs"
"Mg1 H6 C4 S3 N1 O6 F6","S(=O)(=O)(C)C.[N]1[S@@]([O])(O[Mg]O[S@@]1([O])C(F)(F)F)C(F)(F)F","2.204","6.822","1","Multiple Molecules - Open Babel Depiction                                      S O O H H H H H H  . N S  . O O F F F S O  . O F F F Mg","mol-63655","398.584","3.782","-0.836","6.822","2.204","6.152","1.534","C1"
"Zn1 H6 C4 S3 N1 O6 F6","S1(C)(C)O[Zn]2(O1)O[S@@]([N][S@](O2)([O])C(F)(F)F)([O])C(F)(F)F","2.102","6.845","1","Multiple Molecules - Open Babel Depiction                                      S O O H H H H H H  . N S  . O O F F F S O  . O F F F Zn","mol-64706","439.688","3.805","-0.938","6.845","2.102","6.175","1.432","C1"
"Mg1 H3 C4 S2 N2 O4 F6","CC#N.[N]1[S@@]([O])(O[Mg]O[S@@]1([O])C(F)(F)F)C(F)(F)F","0.995","6.865","1","Multiple Molecules - Open Babel Depiction                                 N H H H  . N S  . O O F F F S O  . O F F F Mg","mol-64032","345.503","3.825","-2.045","6.865","0.995","6.195","0.325","C1"
"Mg1 H7 C5 S2 N2 O5 F6","[N]([S@@]([O])(O[Mg]O[CH]N(C)C)C(F)(F)F)S(=O)(=O)C(F)(F)F","0.907","6.868","1","Multiple Molecules - Open Babel Depiction                                   . N S  . O O F F F S O O F F F Mg H  . N O H H H H H H","mol-64980","377.545","3.828","-2.133","6.868","0.907","6.198","0.237","C1"
"H10 C6 N1 O2 F1","C1C[C@H](C[C@H](C1)N(=O)=O)F","1.524","6.9","0","H10 C6 N1 O2 F1 - Open Babel Depiction                                    H H H H H H H H H H O O N F   H10 C6 N1 O2 F1","mol-25571","147.148","3.86","-1.516","6.9","1.524","6.23","0.854","C1"
"Zn1 H3 C4 S2 N2 O4 F6","C[C][N][Zn]1O[S@@]([N][S@](O1)([O])C(F)(F)F)([O])C(F)(F)F","1.778","6.934","1","Multiple Molecules - Open Babel Depiction                                 ..  . N H H H  . N S  . O O F F F S O  . O F F F Zn","mol-64512","386.607","3.894","-1.262","6.934","1.778","6.264","1.108","C1"
"Mg1 Si2 H6 C6 N1 O2 F8","[N]1[Si@@](C(F)(F)F)(F)[C](O[Mg]O[C]([Si@@]1(C(F)(F)F)F)C)C","2.157","6.976","1","Multiple Molecules - Open Babel Depiction                                                      . N Si Si F F F F F F F F  .  . O O H H H H H H Mg","mol-161961","356.581","3.936","-0.883","6.976","2.157","6.306","1.487","Cs"
"Ca1 H10 C6 S2 N1 O6 F6","COC(OC)C.[N]1[S@@]([O])(O[Ca]O[S@@]1([O])C(F)(F)F)C(F)(F)F","0.599","7.049","1","Multiple Molecules - Open Babel Depiction                                         O O H H H H H H H H H H  . N S  . O O F F F S O  . O F F F Ca","mol-64990","410.345","4.009","-2.441","7.049","0.599","6.379","-0.071","C1"
"H10 C6 N1 O2 F1","C1CC[C@H]([C@H](C1)F)N(=O)=O","1.462","7.109","0","H10 C6 N1 O2 F1 - Open Babel Depiction                           H H H H H H H H H H O O N F   H10 C6 N1 O2 F1","mol-25586","147.148","4.069","-1.578","7.109","1.462","6.439","0.792","C1"
"H8 C5 N1 O2 F1","C1C[C@H](C[C@@H]1F)N(=O)=O","1.498","7.248","0","H8 C5 N1 O2 F1 - Open Babel Depiction                            O H H H H H H H H O N F   H8 C5 N1 O2 F1","mol-28050","133.121","4.208","-1.542","7.248","1.498","6.578","0.828","C1"
"Zn1 H14 C8 S2 N1 O7 F6","COCCOCCOC.[N]1[S@@]([O])(O[Zn]O[S@@]1([O])C(F)(F)F)C(F)(F)F","1.435","7.261","1","Multiple Molecules - Open Babel Depiction                                                O O O H H H H H H H H H H H H H H  . N S  . O O F F F S O  . O F F F Zn","mol-64994","479.729","4.221","-1.605","7.261","1.435","6.591","0.765","C1"
"Mg1 H14 C8 S2 N1 O7 F6","COCCOCCOC.[N]1[S@@]([O])(O[Mg]O[S@@]1([O])C(F)(F)F)C(F)(F)F","0.381","7.294","1","Multiple Molecules - Open Babel Depiction                                                O O O H H H H H H H H H H H H H H  . N S  . O O F F F S O  . O F F F Mg","mol-64023","438.625","4.254","-2.659","7.294","0.381","6.624","-0.289","C1"
"Mg1 H10 C6 S2 N1 O6 F6","COC(OC)C.[N]1[S@@]([O])(O[Mg]O[S@@]1([O])C(F)(F)F)C(F)(F)F","1.095","7.4","1","Multiple Molecules - Open Babel Depiction                                         O O H H H H H H H H H H  . N S  . O O F F F S O  . O F F F Mg","mol-64261","394.572","4.36","-1.945","7.4","1.095","6.73","0.425","C1"
"Mg1 H8 C6 S2 N1 O5 F6","C1COCC1.[N]1[S@@]([O])(O[Mg]O[S@@]1([O])C(F)(F)F)C(F)(F)F","1.435","7.434","1","Multiple Molecules - Open Babel Depiction                                       O H H H H H H H H  . N S  . O O F F F S O  . O F F F Mg","mol-63532","376.557","4.394","-1.605","7.434","1.435","6.764","0.765","C1"
"Zn1 H10 C6 S2 N1 O6 F6","COC(OC)C.[N]1[S@@]([O])(O[Zn]O[S@@]1([O])C(F)(F)F)C(F)(F)F","2.025","7.446","1","Multiple Molecules - Open Babel Depiction                                         O O H H H H H H H H H H  . N S  . O O F F F S O  . O F F F Zn","mol-64991","435.676","4.406","-1.015","7.446","2.025","6.776","1.355","C1"
"Zn1 H8 C6 S2 N1 O5 F6","C1COCC1.[N]1[S@@]([O])(O[Zn]O[S@@]1([O])C(F)(F)F)C(F)(F)F","","7.486","1","Multiple Molecules - Open Babel Depiction                                       O H H H H H H H H  . N S  . O O F F F S O  . O F F F Zn","mol-64989","417.661","4.446","","7.486","","6.816","","C1"
"Mg1 H10 C7 S2 N1 O5 F6","[N]1[S@@]([O])(O[Mg]O[S@@]1([O])C(F)(F)F)C(F)(F)F.O1CCC[C@@H]1C","","7.665","1","Multiple Molecules - Open Babel Depiction                                           . N S  . O O F F F S O  . O F F F Mg O H H H H H H H H H H","mol-64984","390.583","4.625","","7.665","","6.995","","C1"
"Mg1 H7 C4 S2 N2 O4 F6","CNC.[N]1[S@@]([O])(O[Mg]O[S@@]1([O])C(F)(F)F)C(F)(F)F","1.621","7.71","1","Multiple Molecules - Open Babel Depiction                                   N H H H H H H H  . N S  . O O F F F S O  . O F F F Mg","mol-63621","349.535","4.67","-1.419","7.71","1.621","7.04","0.951","C1"
"Mg1 H10 C6 S2 N1 O5 F6","[N]1[S@@]([O])(O[Mg]O[S@@]1([O])C(F)(F)F)C(F)(F)F.CCOCC","","8.002","1","Multiple Molecules - Open Babel Depiction                                         . N S  . O O F F F S O  . O F F F Mg O H H H H H H H H H H","mol-64857","378.573","4.962","","8.002","","7.332","","C1"
"Zn1 H10 C6 S2 N1 O5 F6","[N]1[S@@]([O])(O[Zn]O[S@@]1([O])C(F)(F)F)C(F)(F)F.CCOCC","2.717","8.068","1","Multiple Molecules - Open Babel Depiction                                         . N S  . O O F F F S O  . O F F F Zn O H H H H H H H H H H","mol-64988","419.677","5.028","-0.323","8.068","2.717","7.398","2.047","C1"