"Formula","Smiles","EA (eV)","IE (eV)","Charge","Svg","Task Id","MW","Oxidation Hydrogen","Reduction Hydrogen","Oxidation Lithium","Reduction Lithium","Oxidation Magnesium","Reduction Magnesium","Point Group"
"H10 C16 N1 O2 F1","C1(=N/C(=C/c2ccc(cc2)F)/C(=O)O1)c1ccccc1","1.829","4.599","0","Multiple Molecules - Open Babel Depiction                                              N O O F H H H H H H H H H H","mol-40247","267.255","1.559","-1.211","4.599","1.829","3.929","1.159","Cs"
"H3 C6 N2 O4 F1","c1cc(c2c(c1)ON(N(=O)=O)O2)F","3.293","4.601","0","Multiple Molecules - Open Babel Depiction                           F N N O O O O H H H","mol-114922","186.097","1.561","0.253","4.601","3.293","3.931","2.623","C1"
"H7 C9 N2 O3 F3","C/C(=N/c1cc(cc2c1ONO2)C(F)(F)F)/O","0.494","4.602","0","Multiple Molecules - Open Babel Depiction                                  F F F N N O O O H H H H H H H","mol-116279","248.159","1.562","-2.546","4.602","0.494","3.932","-0.176","C1"
"H6 C9 N1 O2 F3","C=Cc1cc2c(cc1C(F)(F)F)ONO2","0.785","4.608","0","Multiple Molecules - Open Babel Depiction                               F F F N O O H H H H H H","mol-106352","217.145","1.568","-2.255","4.608","0.785","3.938","0.115","C1"
"H7 C8 N2 O3 F1","C/C(=N/c1ccc2c(c1)ON(F)O2)/O","","4.616","0","Multiple Molecules - Open Babel Depiction                               F N N O O O H H H H H H H","mol-106969","198.151","1.576","","4.616","","3.946","","C1"
"H6 C7 S1 N1 O1 F3","C/C(=N/c1ccc(C(F)(F)F)s1)/O","0.747","4.617","0","Multiple Molecules - Open Babel Depiction                           F F F N O S H H H H H H","mol-103833","209.189","1.577","-2.293","4.617","0.747","3.947","0.077","Cs"
"H2 C4 S2 N1 O2 F1","C1=C(F)SC(=CS1)N(=O)=O","2.245","4.619","0","H2 C4 S2 N1 O2 F1 - Open Babel Depiction                    F N O O S S H H   H2 C4 S2 N1 O2 F1","mol-39990","179.193","1.579","-0.795","4.619","2.245","3.949","1.575","C1"
"H6 C8 N1 O2 F3","Cc1cc2c(cc1C(F)(F)F)ONO2","0.377","4.62","0","Multiple Molecules - Open Babel Depiction                             F F F N O O H H H H H H","mol-115454","205.134","1.58","-2.663","4.62","0.377","3.95","-0.293","C1"
"H4 C8 N1 O2 F1","C#Cc1c(ccc2c1ONO2)F","0.744","4.622","0","Multiple Molecules - Open Babel Depiction                           F N O O H H H H","mol-114763","165.121","1.582","-2.296","4.622","0.744","3.952","0.074","C1"
"H10 C54 N2 O4 F16","c1c2c3c4c5c1c(=O)n(c(=O)c5cc1c4c4c5c3c(cc3c5c(cc4c4c1c1c(c(c(c(c1F)F)F)F)c1c4c(c(c(c1F)F)F)F)c(=O)n(c3=O)C)c1c2c2c(c(c(c(c2c2c1c(c(c(c2F)F)F)F)F)F)F)F)C","2.391","4.623","0","Multiple Molecules - Open Babel Depiction                                                                                                                                     N N O O O O H H H H H H H H H H F F F F F F F F F F F F F F F F","mol-62095","527.321","1.583","-0.649","4.623","2.391","3.953","1.721","C2"
"H4 C8 N1 O2 F1","C#Cc1cc(cc2c1ONO2)F","0.772","4.623","0","Multiple Molecules - Open Babel Depiction                           F N O O H H H H","mol-96291","165.121","1.583","-2.268","4.623","0.772","3.953","0.102","C1"
"H7 C9 N2 O3 F3","C/C(=N/c1c(ccc2c1ONO2)C(F)(F)F)/O","0.6","4.627","0","Multiple Molecules - Open Babel Depiction                                  F F F N N O O O H H H H H H H","mol-116255","248.159","1.587","-2.44","4.627","0.6","3.957","-0.07","C1"
"H12 C11 N1 O2 F3","CC(C)(C)c1ccc2c(c1)ON(C(F)(F)F)O2","-0.146","4.628","0","Multiple Molecules - Open Babel Depiction                                      F F F N O O H H H H H H H H H H H H","mol-115837","247.214","1.588","-3.186","4.628","-0.146","3.958","-0.816","C1"
"H12 C11 N1 O2 F3","CC(C)(C)c1ccc(c2c1ONO2)C(F)(F)F","0.393","4.631","0","Multiple Molecules - Open Babel Depiction                                      F F F N O O H H H H H H H H H H H H","mol-115256","247.214","1.591","-2.647","4.631","0.393","3.961","-0.277","C1"
"H8 C9 N1 O2 F3","CCc1cc2c(cc1C(F)(F)F)ONO2","0.338","4.633","0","Multiple Molecules - Open Babel Depiction                                F F F N O O H H H H H H H H","mol-97474","219.161","1.593","-2.702","4.633","0.338","3.963","-0.332","C1"
"H6 C7 N1 O3 F1","COc1ccc(c2c1ONO2)F","0.154","4.636","0","Multiple Molecules - Open Babel Depiction                           F N O O O H H H H H H","mol-114876","171.126","1.596","-2.886","4.636","0.154","3.966","-0.516","C1"
"H7 C8 S1 N2 O1 F1","CC(=O)c1cccc2c1[nH]s[n]2.[F]","","4.636","0","Multiple Molecules - Open Babel Depiction                              . F N  . N O S H H H H H H H","mol-112511","198.217","1.596","","4.636","","3.966","","C1"
"H6 C7 S1 N1 O1 F3","C/C(=N/c1cc(C(F)(F)F)sc1)/O","0.442","4.636","0","Multiple Molecules - Open Babel Depiction                           F F F N O S H H H H H H","mol-112363","209.189","1.596","-2.598","4.636","0.442","3.966","-0.228","Cs"
"H4 C6 N1 O2 F1","c1cc(c2c(c1)ONO2)F","0.221","4.637","0","Multiple Molecules - Open Babel Depiction                       F N O O H H H H","mol-105871","141.1","1.597","-2.819","4.637","0.221","3.967","-0.449","C1"
"H4 C6 N1 O3 F1","c1cc(c2c(c1F)ONO2)O","0.07","4.638","0","Multiple Molecules - Open Babel Depiction                        F N O O O H H H H","mol-115824","157.099","1.598","-2.97","4.638","0.07","3.968","-0.6","C1"
"H12 C11 N1 O2 F3","CC(C)(C)c1c(ccc2c1ONO2)C(F)(F)F","0.353","4.639","0","Multiple Molecules - Open Babel Depiction                                      F F F N O O H H H H H H H H H H H H","mol-115440","247.214","1.599","-2.687","4.639","0.353","3.969","-0.317","C1"
"H12 C11 N1 O2 F3","CC(C)(C)c1cc(cc2c1ONO2)C(F)(F)F","0.343","4.64","0","Multiple Molecules - Open Babel Depiction                                      F F F N O O H H H H H H H H H H H H","mol-115330","247.214","1.6","-2.697","4.64","0.343","3.97","-0.327","C1"
"H7 C9 N2 O3 F3","C[C]([N]N1Oc2cccc(c2O1)C(F)(F)F)O","","4.641","0","Multiple Molecules - Open Babel Depiction                                       . F F F  . N N O O O H H H H H H H","mol-116189","248.159","1.601","","4.641","","3.971","","C1"
"H12 C11 N1 O2 F3","CC(C)(C)c1cc2c(cc1C(F)(F)F)ONO2","0.37","4.642","0","Multiple Molecules - Open Babel Depiction                                      F F F N O O H H H H H H H H H H H H","mol-115769","247.214","1.602","-2.67","4.642","0.37","3.972","-0.3","C1"
"H6 C8 N1 O3 F1","CC(=O)c1cc(cc2c1ONO2)F","1.273","4.643","0","Multiple Molecules - Open Babel Depiction                             F N O O O H H H H H H","mol-105653","183.137","1.603","-1.767","4.643","1.273","3.973","0.603","C1"
"H7 C9 N2 O3 F3","C[C]([N]N1Oc2ccc(cc2O1)C(F)(F)F)O","","4.644","0","Multiple Molecules - Open Babel Depiction                                       . F F F  . N N O O O H H H H H H H","mol-116374","248.159","1.604","","4.644","","3.974","","C1"
"H18 C13 N1 O6 F1","COCCOCCOCCOc1ccc(c2c1ONO2)F","0.101","4.644","0","Multiple Molecules - Open Babel Depiction                                                F N O O O O O O H H H H H H H H H H H H H H H H H H","mol-115606","303.284","1.604","-2.939","4.644","0.101","3.974","-0.569","C1"
"H6 C8 N1 O2 F3","Cc1ccc2c(c1)ON(C(F)(F)F)O2","-0.095","4.644","0","Multiple Molecules - Open Babel Depiction                             F F F N O O H H H H H H","mol-106535","205.134","1.604","-3.135","4.644","-0.095","3.974","-0.765","C1"
"H6 C8 N1 O2 F1","C=Cc1ccc(c2c1ONO2)F","0.557","4.644","0","Multiple Molecules - Open Babel Depiction                            F N O O H H H H H H","mol-96212","167.137","1.604","-2.483","4.644","0.557","3.974","-0.113","C1"
"H6 C8 N1 O2 F3","Cc1ccc(c2c1ONO2)C(F)(F)F","0.4","4.646","0","Multiple Molecules - Open Babel Depiction                             F F F N O O H H H H H H","mol-96767","205.134","1.606","-2.64","4.646","0.4","3.976","-0.27","C1"
"H8 C9 N1 O2 F3","CCc1ccc(c2c1ONO2)C(F)(F)F","0.411","4.646","0","Multiple Molecules - Open Babel Depiction                                F F F N O O H H H H H H H H","mol-96980","219.161","1.606","-2.629","4.646","0.411","3.976","-0.259","C1"
"H6 C7 S1 N1 O1 F3","C/C(=N/c1cscc1C(F)(F)F)/O","0.194","4.647","0","Multiple Molecules - Open Babel Depiction                           F F F N O S H H H H H H","mol-112294","209.189","1.607","-2.846","4.647","0.194","3.977","-0.476","Cs"
"H8 C9 N1 O2 F3","CCc1ccc2c(c1)ON(C(F)(F)F)O2","-0.151","4.648","0","Multiple Molecules - Open Babel Depiction                                F F F N O O H H H H H H H H","mol-106961","219.161","1.608","-3.191","4.648","-0.151","3.978","-0.821","C1"
"H6 C6 S1 N1 O1 F1","C1C=C(C(=N)O)SC(=C1)F","0.696","4.652","0","H6 C6 S1 N1 O1 F1 - Open Babel Depiction                       F N O S H H H H H H   H6 C6 S1 N1 O1 F1","mol-16166","159.181","1.612","-2.344","4.652","0.696","3.982","0.026","C1"
"H8 C12 N1 O2 F1","c1ccc(cc1)c1ccc(c2c1ONO2)F","0.441","4.654","0","Multiple Molecules - Open Babel Depiction                                     F N O O H H H H H H H H","mol-115035","217.196","1.614","-2.599","4.654","0.441","3.984","-0.229","C1"
"Ca1 H11 C10 S2 N2 O4 F6","CN(C)c1ccccc1.[N]1[S@@]([O])(O[Ca]O[S@@]1([O])C(F)(F)F)C(F)(F)F","1.376","4.655","1","Multiple Molecules - Open Babel Depiction                                                 N H H H H H H H H H H H  . N S  . O O F F F S O  . O F F F Ca","mol-65011","441.404","1.615","-1.664","4.655","1.376","3.985","0.706","C1"
"H6 C8 N1 O2 F3","Cc1cc(cc2c1ONO2)C(F)(F)F","0.37","4.656","0","Multiple Molecules - Open Babel Depiction                             F F F N O O H H H H H H","mol-109158","205.134","1.616","-2.67","4.656","0.37","3.986","-0.3","C1"
"H7 C9 N2 O3 F3","C/C(=N/c1cccc2c1ON(C(F)(F)F)O2)/O","0.36","4.656","0","Multiple Molecules - Open Babel Depiction                                  F F F N N O O O H H H H H H H","mol-116325","248.159","1.616","-2.68","4.656","0.36","3.986","-0.31","C1"
"H6 C8 N1 O3 F1","CC(=O)c1c(ccc2c1ONO2)F","1.202","4.659","0","Multiple Molecules - Open Babel Depiction                             F N O O O H H H H H H","mol-114083","183.137","1.619","-1.838","4.659","1.202","3.989","0.532","C1"
"H8 C9 N1 O2 F3","CCc1cc(cc2c1ONO2)C(F)(F)F","0.344","4.659","0","Multiple Molecules - Open Babel Depiction                                F F F N O O H H H H H H H H","mol-121264","219.161","1.619","-2.696","4.659","0.344","3.989","-0.326","C1"
"H4 C8 N1 O2 F1","C#Cc1ccc2c(c1F)ONO2","0.586","4.66","0","Multiple Molecules - Open Babel Depiction                           F N O O H H H H","mol-106588","165.121","1.62","-2.454","4.66","0.586","3.99","-0.084","C1"
"H14 C11 N1 O5 F1","COCCOCCOc1ccc(c2c1ONO2)F","0.146","4.66","0","Multiple Molecules - Open Babel Depiction                                         F N O O O O O H H H H H H H H H H H H H H","mol-122175","259.231","1.62","-2.894","4.66","0.146","3.99","-0.524","C1"
"H20 C42 N2 O4 F2","c1c2c3c4c5c1c(=O)n(c(=O)c5cc1c4c4c5c3c(cc3c5c(cc4c(c1)c1ccccc1F)c(=O)n(c3=O)C)cc2c1ccccc1F)C","2.203","4.662","0","Multiple Molecules - Open Babel Depiction                                                                                                           N N O O O O F F H H H H H H H H H H H H H H H H H H H H","mol-62049","327.308","1.622","-0.837","4.662","2.203","3.992","1.533","C2"
"H4 C7 N1 O4 F1","c1cc2c(c(c1F)C(=O)O)ONO2","1.134","4.662","0","Multiple Molecules - Open Babel Depiction                           F N O O O O H H H H","mol-106310","185.109","1.622","-1.906","4.662","1.134","3.992","0.464","C1"
"H4 C8 N1 O2 F1","C#Cc1cc(c2c(c1)ONO2)F","0.642","4.663","0","Multiple Molecules - Open Babel Depiction                           F N O O H H H H","mol-115702","165.121","1.623","-2.398","4.663","0.642","3.993","-0.028","C1"
"H10 C9 N1 O4 F1","COCCOc1ccc(c2c1ONO2)F","0.154","4.663","0","Multiple Molecules - Open Babel Depiction                                  F N O O O O H H H H H H H H H H","mol-114961","215.178","1.623","-2.886","4.663","0.154","3.993","-0.516","C1"
"H8 C9 N1 O2 F3","CCc1c(ccc2c1ONO2)C(F)(F)F","0.324","4.666","0","Multiple Molecules - Open Babel Depiction                                F F F N O O H H H H H H H H","mol-96953","219.161","1.626","-2.716","4.666","0.324","3.996","-0.346","C1"
"H14 C12 N1 O5 F3","COCCOCCOc1c(ccc2c1ONO2)C(F)(F)F","0.329","4.668","0","Multiple Molecules - Open Babel Depiction                                            F F F N O O O O O H H H H H H H H H H H H H H","mol-115435","309.238","1.628","-2.711","4.668","0.329","3.998","-0.341","C1"
"H3 C7 N2 O4 F3","c1cc(c2c(c1)ON(N(=O)=O)O2)C(F)(F)F","3.326","4.672","0","Multiple Molecules - Open Babel Depiction                              F F F N N O O O O H H H","mol-105893","236.105","1.632","0.286","4.672","3.326","4.002","2.656","C1"
"H3 C6 N1 Cl1 O2 F1","c1cc2c(c(c1F)Cl)ONO2","1.411","4.672","0","Multiple Molecules - Open Babel Depiction                       Cl F N O O H H H","mol-95904","175.545","1.632","-1.629","4.672","1.411","4.002","0.741","C1"
"H6 C8 N1 O2 F3","Cc1c(ccc2c1ONO2)C(F)(F)F","0.355","4.674","0","Multiple Molecules - Open Babel Depiction                             F F F N O O H H H H H H","mol-114971","205.134","1.634","-2.685","4.674","0.355","4.004","-0.315","C1"
"H3 C7 N2 O4 F3","c1cc2c(cc1C(F)(F)F)ON(N(=O)=O)O2","3.319","4.675","0","Multiple Molecules - Open Babel Depiction                              F F F N N O O O O H H H","mol-109258","236.105","1.635","0.279","4.675","3.319","4.005","2.649","C1"
"H6 C7 S1 N1 O1 F3","C/C(=N/c1ccsc1C(F)(F)F)/O","0.861","4.678","0","Multiple Molecules - Open Babel Depiction                           F F F N O S H H H H H H","mol-112255","209.189","1.638","-2.179","4.678","0.861","4.008","0.191","C1"
"H7 C7 S1 N2 O1 F1","COc1ccc2c(c1)[nH]sn2F","","4.678","0","Multiple Molecules - Open Babel Depiction                            F N N O S H H H H H H H","mol-112612","186.207","1.638","","4.678","","4.008","","C1"
"H6 C6 S1 N1 O1 F1","C1=CSC=C([C@@H]1C(=N)O)F","0.376","4.682","0","H6 C6 S1 N1 O1 F1 - Open Babel Depiction                       F N O S H H H H H H   H6 C6 S1 N1 O1 F1","mol-16152","159.181","1.642","-2.664","4.682","0.376","4.012","-0.294","C1"
"H6 C8 N1 O3 F3","COc1c(ccc2c1ONO2)C(F)(F)F","0.346","4.684","0","Multiple Molecules - Open Babel Depiction                              F F F N O O O H H H H H H","mol-115004","221.133","1.644","-2.694","4.684","0.346","4.014","-0.324","C1"
"H18 C14 N1 O6 F3","COCCOCCOCCOc1c(ccc2c1ONO2)C(F)(F)F","0.224","4.684","0","Multiple Molecules - Open Babel Depiction                                                   F F F N O O O O O O H H H H H H H H H H H H H H H H H H","mol-115764","353.291","1.644","-2.816","4.684","0.224","4.014","-0.446","C1"
"H11 C9 S1 N2 O2 F1","COCCOc1ccc2c(c1)[nH]sn2F","","4.685","0","Multiple Molecules - Open Babel Depiction                                   F N N O O S H H H H H H H H H H H","mol-112764","230.259","1.645","","4.685","","4.015","","C1"
"H3 C6 N1 Cl1 O2 F1","c1c(cc2c(c1Cl)ONO2)F","1.311","4.685","0","Multiple Molecules - Open Babel Depiction                       Cl F N O O H H H","mol-105724","175.545","1.645","-1.729","4.685","1.311","4.015","0.641","C1"
"H8 C13 N1 O2 F3","c1ccc(cc1)c1cc2c(cc1C(F)(F)F)ONO2","0.523","4.686","0","Multiple Molecules - Open Babel Depiction                                        F F F N O O H H H H H H H H","mol-116155","267.203","1.646","-2.517","4.686","0.523","4.016","-0.147","C1"
"H8 C13 N1 O2 F3","c1ccc(cc1)c1ccc(c2c1ONO2)C(F)(F)F","0.861","4.689","0","Multiple Molecules - Open Babel Depiction                                        F F F N O O H H H H H H H H","mol-115238","267.203","1.649","-2.179","4.689","0.861","4.019","0.191","C1"
"H3 C7 Br3 N1 O2 F1","c1cc2c(c(c1F)C(Br)(Br)Br)ONO2","3.304","4.69","0","Multiple Molecules - Open Babel Depiction                          Br Br Br F N O O H H H","mol-182760","391.815","1.65","0.264","4.69","3.304","4.02","2.634","C1"
"H4 C9 N1 O2 F3","C#Cc1ccc2c(c1C(F)(F)F)ONO2","0.888","4.694","0","Multiple Molecules - Open Babel Depiction                              F F F N O O H H H H","mol-106406","215.129","1.654","-2.152","4.694","0.888","4.024","0.218","C1"
"H6 C8 N1 O3 F3","COc1ccc(c2c1ONO2)C(F)(F)F","0.398","4.694","0","Multiple Molecules - Open Babel Depiction                              F F F N O O O H H H H H H","mol-100991","221.133","1.654","-2.642","4.694","0.398","4.024","-0.272","C1"
"H6 C9 N1 O2 F3","C=Cc1ccc(c2c1ONO2)C(F)(F)F","0.992","4.696","0","Multiple Molecules - Open Babel Depiction                               F F F N O O H H H H H H","mol-106398","217.145","1.656","-2.048","4.696","0.992","4.026","0.322","C1"
"H6 C6 N1 O1 F1","C1=C[C@@H](C(=C1)F)C(=N)O","0.299","4.7","0","Multiple Molecules - Open Babel Depiction                       F N O H H H H H H","mol-109440","127.116","1.66","-2.741","4.7","0.299","4.03","-0.371","C1"
"H4 C7 N1 O4 F1","c1c(cc2c(c1C(=O)O)ONO2)F","1.186","4.701","0","Multiple Molecules - Open Babel Depiction                           F N O O O O H H H H","mol-115655","185.109","1.661","-1.854","4.701","1.186","4.031","0.516","C1"
"H18 C14 N1 O6 F3","COCCOCCOCCOc1ccc(c2c1ONO2)C(F)(F)F","0.394","4.702","0","Multiple Molecules - Open Babel Depiction                                                   F F F N O O O O O O H H H H H H H H H H H H H H H H H H","mol-115681","353.291","1.662","-2.646","4.702","0.394","4.032","-0.276","C1"
"H10 C10 N1 O4 F3","COCCOc1c(ccc2c1ONO2)C(F)(F)F","0.337","4.702","0","Multiple Molecules - Open Babel Depiction                                     F F F N O O O O H H H H H H H H H H","mol-115012","265.186","1.662","-2.703","4.702","0.337","4.032","-0.333","C1"
"H4 C8 N1 O2 F1","C#CN1Oc2cccc(c2O1)F","","4.704","0","Multiple Molecules - Open Babel Depiction                           F N O O H H H H","mol-114210","165.121","1.664","","4.704","","4.034","","C1"
"H4 C7 N1 O3 F3","c1cc(c2c(c1C(F)(F)F)ONO2)O","0.283","4.705","0","Multiple Molecules - Open Babel Depiction                           F F F N O O O H H H H","mol-106960","207.107","1.665","-2.757","4.705","0.283","4.035","-0.387","C1"
"H10 C10 N1 O4 F3","COCCOc1ccc(c2c1ONO2)C(F)(F)F","0.395","4.708","0","Multiple Molecules - Open Babel Depiction                                     F F F N O O O O H H H H H H H H H H","mol-114931","265.186","1.668","-2.645","4.708","0.395","4.038","-0.275","C1"
"H3 C7 N1 Cl3 O2 F1","c1cc2c(c(c1F)C(Cl)(Cl)Cl)ONO2","","4.708","0","Multiple Molecules - Open Babel Depiction                          Cl Cl Cl F N O O H H H","mol-106826","258.462","1.668","","4.708","","4.038","","C1"
"H3 C6 N1 O2 F2","c1c(cc2c(c1F)ONO2)F","0.419","4.709","0","Multiple Molecules - Open Babel Depiction                       F F N O O H H H","mol-105867","159.09","1.669","-2.621","4.709","0.419","4.039","-0.251","C1"
"H3 C6 N1 Cl1 O2 F1","c1cc2c(c(c1Cl)F)ONO2","0.551","4.71","0","Multiple Molecules - Open Babel Depiction                       Cl F N O O H H H","mol-106357","175.545","1.67","-2.489","4.71","0.551","4.04","-0.119","C1"
"H3 C7 Br3 N1 O2 F1","c1c(cc2c(c1C(Br)(Br)Br)ONO2)F","","4.71","0","Multiple Molecules - Open Babel Depiction                          Br Br Br F N O O H H H","mol-183024","391.815","1.67","","4.71","","4.04","","C1"
"H6 C9 N1 O2 F3","C=Cc1cc(cc2c1ONO2)C(F)(F)F","0.764","4.71","0","Multiple Molecules - Open Babel Depiction                               F F F N O O H H H H H H","mol-105927","217.145","1.67","-2.276","4.71","0.764","4.04","0.094","C1"
"H14 C12 N1 O5 F3","COCCOCCOc1ccc(c2c1ONO2)C(F)(F)F","0.382","4.711","0","Multiple Molecules - Open Babel Depiction                                            F F F N O O O O O H H H H H H H H H H H H H H","mol-115237","309.238","1.671","-2.658","4.711","0.382","4.041","-0.288","C1"
"H4 C7 N1 O3 F3","c1c(cc2c(c1O)ONO2)C(F)(F)F","0.437","4.711","0","Multiple Molecules - Open Babel Depiction                           F F F N O O O H H H H","mol-97661","207.107","1.671","-2.603","4.711","0.437","4.041","-0.233","C1"