"Formula","Smiles","EA (eV)","IE (eV)","Charge","Svg","Task Id","MW","Oxidation Hydrogen","Reduction Hydrogen","Oxidation Lithium","Reduction Lithium","Oxidation Magnesium","Reduction Magnesium","Point Group"
"H6 C8 N1 O3 F3","COc1cc(cc2c1ONO2)C(F)(F)F","0.437","4.712","0","Multiple Molecules - Open Babel Depiction                              F F F N O O O H H H H H H","mol-115794","221.133","1.672","-2.603","4.712","0.437","4.042","-0.233","C1"
"H3 C6 N1 O2 F2","c1cc2c(c(c1F)F)ONO2","0.565","4.712","0","Multiple Molecules - Open Babel Depiction                       F F N O O H H H","mol-105861","159.09","1.672","-2.475","4.712","0.565","4.042","-0.105","C1"
"H6 C9 N1 O2 F3","C=Cc1c(ccc2c1ONO2)C(F)(F)F","0.849","4.713","0","Multiple Molecules - Open Babel Depiction                               F F F N O O H H H H H H","mol-106447","217.145","1.673","-2.191","4.713","0.849","4.043","0.179","C1"
"H6 C8 N1 O3 F1","CC(=O)N1Oc2cccc(c2O1)F","","4.713","0","Multiple Molecules - Open Babel Depiction                             F N O O O H H H H H H","mol-95283","183.137","1.673","","4.713","","4.043","","C1"
"H4 C7 N1 O4 F1","c1cc2c(cc1F)ON(C(=O)O)O2","0.776","4.715","0","Multiple Molecules - Open Babel Depiction                           F N O O O O H H H H","mol-106371","185.109","1.675","-2.264","4.715","0.776","4.045","0.106","C1"
"H4 C5 N1 O3 F1","C1=C(C(=N)O)OC=C(F)O1","0.802","4.715","0","H4 C5 N1 O3 F1 - Open Babel Depiction                     F N O O O H H H H   H4 C5 N1 O3 F1","mol-39180","145.089","1.675","-2.238","4.715","0.802","4.045","0.132","C1"
"H4 C7 N1 O2 F3","c1cc(c2c(c1)ONO2)C(F)(F)F","0.529","4.715","0","Multiple Molecules - Open Babel Depiction                          F F F N O O H H H H","mol-106056","191.107","1.675","-2.511","4.715","0.529","4.045","-0.141","C1"
"H12 C11 N1 O2 F3","CC(C)(C)c1cccc2c1ON(C(F)(F)F)O2","-0.226","4.716","0","Multiple Molecules - Open Babel Depiction                                      F F F N O O H H H H H H H H H H H H","mol-115232","247.214","1.676","-3.266","4.716","-0.226","4.046","-0.896","C1"
"H4 C5 S1 N1 O2 F1","C1C=C(N(=O)=O)SC=C1F","2.232","4.716","0","H4 C5 S1 N1 O2 F1 - Open Babel Depiction                      F N O O S H H H H   H4 C5 S1 N1 O2 F1","mol-15367","161.154","1.676","-0.808","4.716","2.232","4.046","1.562","Cs"
"H10 C26 N2 O4 F4","c1c(c2c3c4c1c(=O)n(c(=O)c4cc(c3c1c3c2c(cc2c3c(cc1F)c(=O)n(c2=O)C)F)F)C)F","2.671","4.717","0","Multiple Molecules - Open Babel Depiction                                                                       N N O O O O F F F F H H H H H H H H H H","mol-61970","245.181","1.677","-0.369","4.717","2.671","4.047","2.001","C2"
"H3 C7 Br3 N1 O2 F1","c1c(c(cc2c1ONO2)F)C(Br)(Br)Br","3.246","4.718","0","Multiple Molecules - Open Babel Depiction                          Br Br Br F N O O H H H","mol-182781","391.815","1.678","0.206","4.718","3.246","4.048","2.576","C1"
"H18 C13 N1 O6 F1","COCCOCCOCCOc1ccc2c(c1)ON(F)O2","3.542","4.72","0","Multiple Molecules - Open Babel Depiction                                                F N O O O O O O H H H H H H H H H H H H H H H H H H","mol-115287","303.284","1.68","0.502","4.72","3.542","4.05","2.872","C1"
"H4 C7 N1 O2 F3","c1cc2c(cc1C(F)(F)F)ONO2","0.425","4.721","0","Multiple Molecules - Open Babel Depiction                          F F F N O O H H H H","mol-115474","191.107","1.681","-2.615","4.721","0.425","4.051","-0.245","C1"
"H3 C6 N1 Cl1 O2 F1","c1c(cc2c(c1F)ONO2)Cl","0.446","4.722","0","Multiple Molecules - Open Babel Depiction                       Cl F N O O H H H","mol-97120","175.545","1.682","-2.594","4.722","0.446","4.052","-0.224","C1"
"H6 C8 N1 O3 F1","CC(=O)c1cc2c(cc1F)ONO2","1.073","4.724","0","Multiple Molecules - Open Babel Depiction                             F N O O O H H H H H H","mol-105647","183.137","1.684","-1.967","4.724","1.073","4.054","0.403","C1"
"H15 C11 S1 N2 O3 F1","COCCOCCOn1c2ccccc2n(F)s1","","4.725","0","Multiple Molecules - Open Babel Depiction                                          F N N O O O S H H H H H H H H H H H H H H H","mol-113008","274.312","1.685","","4.725","","4.055","","C1"
"H18 C42 N2 O4 F4","c1c2c3c4c5c1c(=O)n(c(=O)c5cc1c4c4c5c3c(cc3c5c(cc4c(c1)c1cc(ccc1F)F)c(=O)n(c3=O)C)cc2c1cc(ccc1F)F)C","2.246","4.727","0","Multiple Molecules - Open Babel Depiction                                                                                                           N N O O O O F F F F H H H H H H H H H H H H H H H H H H","mol-62057","345.298","1.687","-0.794","4.727","2.246","4.057","1.576","Ci"
"H8 C13 N1 O2 F3","c1ccc(cc1)c1c(ccc2c1ONO2)C(F)(F)F","","4.727","0","Multiple Molecules - Open Babel Depiction                                        F F F N O O H H H H H H H H","mol-115367","267.203","1.687","","4.727","","4.057","","C1"
"H10 C10 N1 O4 F3","COCCOc1cc(cc2c1ONO2)C(F)(F)F","0.435","4.728","0","Multiple Molecules - Open Babel Depiction                                     F F F N O O O O H H H H H H H H H H","mol-114954","265.186","1.688","-2.605","4.728","0.435","4.058","-0.235","C1"
"H19 C13 S1 N2 O4 F1","COCCOCCOCCOn1c2ccccc2n(F)s1","","4.729","0","Multiple Molecules - Open Babel Depiction                                                 F N N O O O O S H H H H H H H H H H H H H H H H H H H","mol-113265","318.364","1.689","","4.729","","4.059","","C1"
"H8 C13 N1 O2 F3","c1ccc(cc1)c1cc(cc2c1ONO2)C(F)(F)F","0.676","4.729","0","Multiple Molecules - Open Babel Depiction                                        F F F N O O H H H H H H H H","mol-115480","267.203","1.689","-2.364","4.729","0.676","4.059","0.006","C1"
"H14 C12 N1 O5 F3","COCCOCCOc1cc(cc2c1ONO2)C(F)(F)F","0.422","4.731","0","Multiple Molecules - Open Babel Depiction                                            F F F N O O O O O H H H H H H H H H H H H H H","mol-115427","309.238","1.691","-2.618","4.731","0.422","4.061","-0.248","C1"
"H3 C7 N1 Cl3 O2 F1","c1c(cc2c(c1C(Cl)(Cl)Cl)ONO2)F","","4.734","0","Multiple Molecules - Open Babel Depiction                          Cl Cl Cl F N O O H H H","mol-106615","258.462","1.694","","4.734","","4.064","","C1"
"H6 C8 N1 O2 F3","Cc1cccc2c1ON(C(F)(F)F)O2","-0.274","4.735","0","Multiple Molecules - Open Babel Depiction                             F F F N O O H H H H H H","mol-114999","205.134","1.695","-3.314","4.735","-0.274","4.065","-0.944","C1"
"H13 C7 N2 O2 F1","CN1CCN(C)[C@@](C1)(C(=O)O)F","-0.001","4.736","0","H13 C7 N2 O2 F1 - Open Babel Depiction                                   H H H H H H H H H H H H H O O N N F   H13 C7 N2 O2 F1","mol-28306","176.189","1.696","-3.041","4.736","-0.001","4.066","-0.671","C1"
"H14 C11 N1 O5 F1","COCCOCCOc1ccc2c(c1)ON(F)O2","3.58","4.736","0","Multiple Molecules - Open Babel Depiction                                         F N O O O O O H H H H H H H H H H H H H H","mol-114877","259.231","1.696","0.54","4.736","3.58","4.066","2.91","C1"
"H10 C9 N1 O4 F1","COCCOc1ccc2c(c1)ON(F)O2","3.57","4.738","0","Multiple Molecules - Open Babel Depiction                                  F N O O O O H H H H H H H H H H","mol-114446","215.178","1.698","0.53","4.738","3.57","4.068","2.9","C1"
"H4 C9 N1 O2 F3","C#Cc1cc(c2c(c1)ONO2)C(F)(F)F","0.799","4.738","0","Multiple Molecules - Open Babel Depiction                              F F F N O O H H H H","mol-97818","215.129","1.698","-2.241","4.738","0.799","4.068","0.129","C1"
"H8 C9 N1 O2 F3","CCc1cccc2c1ON(C(F)(F)F)O2","-0.218","4.739","0","Multiple Molecules - Open Babel Depiction                                F F F N O O H H H H H H H H","mol-96843","219.161","1.699","-3.258","4.739","-0.218","4.069","-0.888","C1"
"H4 C5 S1 N1 O2 F1","C1=CSC(=C(C1)F)N(=O)=O","2.14","4.744","0","H4 C5 S1 N1 O2 F1 - Open Babel Depiction                      F N O O S H H H H   H4 C5 S1 N1 O2 F1","mol-15370","161.154","1.704","-0.9","4.744","2.14","4.074","1.47","C1"
"H18 C14 N1 O6 F3","COCCOCCOCCOc1cc(cc2c1ONO2)C(F)(F)F","0.431","4.744","0","Multiple Molecules - Open Babel Depiction                                                   F F F N O O O O O O H H H H H H H H H H H H H H H H H H","mol-120176","353.291","1.704","-2.609","4.744","0.431","4.074","-0.239","C1"
"H3 C7 N1 Cl3 O2 F1","c1c(c(cc2c1ONO2)F)C(Cl)(Cl)Cl","","4.744","0","Multiple Molecules - Open Babel Depiction                          Cl Cl Cl F N O O H H H","mol-115375","258.462","1.704","","4.744","","4.074","","C1"
"H3 C7 Br3 N1 O2 F1","c1cc2c(cc1F)ON(C(Br)(Br)Br)O2","2.523","4.748","0","Multiple Molecules - Open Babel Depiction                          Br Br Br F N O O H H H","mol-182814","391.815","1.708","-0.517","4.748","2.523","4.078","1.853","C1"
"H20 C44 N2 O4 F6","c1c2c3c4c5c1c(=O)n(c(=O)c5cc1c4c4c5c3c(cc3c5c(cc4c(c1)c1c(cccc1)C(F)(F)F)c(=O)n(c3=O)C)cc2c1c(cccc1)C(F)(F)F)C","2.192","4.752","0","Multiple Molecules - Open Babel Depiction                                                                                                                 N N O O O O H H H H H H H H H H F F F F F F H H H H H H H H H H","mol-62054","377.316","1.712","-0.848","4.752","2.192","4.082","1.522","C1"
"H26 C58 N2 O4 F12","c1c2c3c4c5c1c(=O)n(c(=O)c5cc1c4c4c5c3c(cc3c5c(cc4c(c1c1ccccc1C(F)(F)F)c1c(cccc1)C(F)(F)F)c(=O)n(c3=O)C)c(c2c1c(cccc1)C(F)(F)F)c1ccccc1C(F)(F)F)C","2.251","4.752","0","Multiple Molecules - Open Babel Depiction                                                                                                                                                   N N O O O O H H H H H H H H H H F F F F F F F F F F F F H H H H H H H H H H H H H H H H","mol-62119","521.409","1.712","-0.789","4.752","2.251","4.082","1.581","C2"
"H4 C9 N1 O2 F3","C#Cc1cc2c(cc1C(F)(F)F)ONO2","0.852","4.752","0","Multiple Molecules - Open Babel Depiction                              F F F N O O H H H H","mol-115439","215.129","1.712","-2.188","4.752","0.852","4.082","0.182","C1"
"H5 C7 S1 N2 O2 F1","c1cc(c2c(c1)[nH]sn2F)C(=O)O","","4.754","0","Multiple Molecules - Open Babel Depiction                            F N N O O S H H H H H","mol-93900","200.19","1.714","","4.754","","4.084","","C1"
"H3 C7 N1 Cl1 O2 F3","c1cc2c(c(c1Cl)C(F)(F)F)ONO2","0.772","4.757","0","Multiple Molecules - Open Babel Depiction                          Cl F F F N O O H H H","mol-115165","225.552","1.717","-2.268","4.757","0.772","4.087","0.102","C1"
"H4 C7 N1 O3 F3","c1cc2c(c(c1C(F)(F)F)O)ONO2","0.331","4.759","0","Multiple Molecules - Open Babel Depiction                           F F F N O O O H H H H","mol-97389","207.107","1.719","-2.709","4.759","0.331","4.089","-0.339","C1"
"H14 C7 N3 O1 F1","CN1CCN(C)[C@H]([C@H]1C(=N)O)F","-0.859","4.763","0","H14 C7 N3 O1 F1 - Open Babel Depiction                                H H H H H H H H H H H H H H O N N N F   H14 C7 N3 O1 F1","mol-28309","175.204","1.723","-3.899","4.763","-0.859","4.093","-1.529","C1"
"H4 C8 N1 O2 F1","C#Cc1ccc(c2c1ONO2)F","0.601","4.763","0","Multiple Molecules - Open Babel Depiction                           F N O O H H H H","mol-106209","165.121","1.723","-2.439","4.763","0.601","4.093","-0.069","C1"
"H3 C7 N1 O2 F4","c1cc2c(c(c1F)C(F)(F)F)ONO2","0.715","4.765","0","Multiple Molecules - Open Babel Depiction                          F F F F N O O H H H","mol-106342","209.098","1.725","-2.325","4.765","0.715","4.095","0.045","C1"
"H11 C9 S1 N2 O2 F1","COCCOn1c2ccccc2n(F)s1","","4.766","0","Multiple Molecules - Open Babel Depiction                                   F N N O O S H H H H H H H H H H H","mol-112766","230.259","1.726","","4.766","","4.096","","C1"
"H6 C8 N1 O3 F1","CC(=O)c1ccc(c2c1ONO2)F","1.101","4.768","0","Multiple Molecules - Open Babel Depiction                             F N O O O H H H H H H","mol-105650","183.137","1.728","-1.939","4.768","1.101","4.098","0.431","C1"
"B1 H15 C22 N4 O5 F2","N1([B](N(C=C2[C]1c1c(OC2)cccc1)c1ccc(cc1)N(=O)=O)(F)F)c1ccc(cc1)N(=O)=O","2.237","4.77","0","Multiple Molecules - Open Babel Depiction                                                                         N B  . N F F O N O O N O O H H H H H H H H H H H H H H H","mol-57867","464.186","1.73","-0.803","4.77","2.237","4.1","1.567","C1"
"H26 C54 N2 O4 F4","c1c2c3c4c5c1c(=O)n(c(=O)c5cc1c4c4c5c3c(cc3c5c(cc4c(c1c1ccccc1F)c1c(cccc1)F)c(=O)n(c3=O)C)c(c2c1c(cccc1)F)c1ccccc1F)C","2.235","4.771","0","Multiple Molecules - Open Babel Depiction                                                                                                                                       N N O O O O F F F F H H H H H H H H H H H H H H H H H H H H H H H H H H","mol-62068","421.394","1.731","-0.805","4.771","2.235","4.101","1.565","C1"
"H10 C11 N1 O2 F1","C1CCc2c(C1)c(C#N)c(c(c2F)O)O","0.503","4.772","0","Multiple Molecules - Open Babel Depiction                                    F N O O H H H H H H H H H H","mol-116554","207.201","1.732","-2.537","4.772","0.503","4.102","-0.167","C1"
"H6 C5 N1 O1 F1","C1=COC=C([C@@H]1N)F","-0.552","4.772","0","H6 C5 N1 O1 F1 - Open Babel Depiction                         F N O H H H H H H   H6 C5 N1 O1 F1","mol-4074","115.106","1.732","-3.592","4.772","-0.552","4.102","-1.222","C1"
"H4 C7 N1 O4 F1","c1c(c(cc2c1ONO2)F)C(=O)O","1.001","4.773","0","Multiple Molecules - Open Babel Depiction                           F N O O O O H H H H","mol-115729","185.109","1.733","-2.039","4.773","1.001","4.103","0.331","C1"
"H3 C7 N1 Cl3 O2 F1","c1cc2c(cc1F)ON(C(Cl)(Cl)Cl)O2","2.316","4.776","0","Multiple Molecules - Open Babel Depiction                          Cl Cl Cl F N O O H H H","mol-106349","258.462","1.736","-0.724","4.776","2.316","4.106","1.646","C1"
"H6 C9 N1 O3 F3","CC(=O)N1Oc2cccc(c2O1)C(F)(F)F","3.359","4.777","0","Multiple Molecules - Open Babel Depiction                                F F F N O O O H H H H H H","mol-114203","233.144","1.737","0.319","4.777","3.359","4.107","2.689","C1"
"H4 C9 N1 O2 F3","C#CN1Oc2cccc(c2O1)C(F)(F)F","4.522","4.778","0","Multiple Molecules - Open Babel Depiction                              F F F N O O H H H H","mol-105549","215.129","1.738","1.482","4.778","4.522","4.108","3.852","C1"
"H6 C8 N1 O3 F3","COc1cccc2c1ON(C(F)(F)F)O2","3.305","4.778","0","Multiple Molecules - Open Babel Depiction                              F F F N O O O H H H H H H","mol-106079","221.133","1.738","0.265","4.778","3.305","4.108","2.635","C1"
"H4 C9 N1 O2 F3","C#Cc1ccc2c(c1)ON(C(F)(F)F)O2","0.545","4.781","0","Multiple Molecules - Open Babel Depiction                              F F F N O O H H H H","mol-106862","215.129","1.741","-2.495","4.781","0.545","4.111","-0.125","C1"
"H6 C9 N1 O3 F3","CC(=O)N1Oc2ccc(cc2O1)C(F)(F)F","","4.782","0","Multiple Molecules - Open Babel Depiction                                F F F N O O O H H H H H H","mol-121362","233.144","1.742","","4.782","","4.112","","C1"
"H4 C6 N1 O3 F1","c1cc2c(cc1F)ON(O)O2","1.634","4.784","0","Multiple Molecules - Open Babel Depiction                        F N O O O H H H H","mol-106566","157.099","1.744","-1.406","4.784","1.634","4.114","0.964","C1"
"H4 C9 N1 O2 F3","C#CN1Oc2ccc(cc2O1)C(F)(F)F","","4.785","0","Multiple Molecules - Open Babel Depiction                              F F F N O O H H H H","mol-114456","215.129","1.745","","4.785","","4.115","","C1"
"H14 C12 N1 O5 F3","COCCOCCOc1cccc2c1ON(C(F)(F)F)O2","3.298","4.788","0","Multiple Molecules - Open Babel Depiction                                            F F F N O O O O O H H H H H H H H H H H H H H","mol-115360","309.238","1.748","0.258","4.788","3.298","4.118","2.628","C1"
"H6 C7 N1 O3 F1","COc1ccc2c(c1)ON(F)O2","3.475","4.788","0","Multiple Molecules - Open Babel Depiction                           F N O O O H H H H H H","mol-105837","171.126","1.748","0.435","4.788","3.475","4.118","2.805","C1"
"H13 C7 N2 O2 F1","CN1C[C@@H](F)N(C)C[C@H]1C(=O)O","-0.769","4.789","0","H13 C7 N2 O2 F1 - Open Babel Depiction                                        H H H H H H H H H H H H H O O N N F   H13 C7 N2 O2 F1","mol-28268","176.189","1.749","-3.809","4.789","-0.769","4.119","-1.439","C1"
"H2 C5 N1 O2 F1","C(#N)C1=COC=C(F)O1","0.944","4.789","0","H2 C5 N1 O2 F1 - Open Babel Depiction                   F N O O H H   H2 C5 N1 O2 F1","mol-39405","127.073","1.749","-2.096","4.789","0.944","4.119","0.274","Cs"
"H18 C14 N1 O6 F3","COCCOCCOCCOc1cccc2c1ON(C(F)(F)F)O2","3.25","4.79","0","Multiple Molecules - Open Babel Depiction                                                   F F F N O O O O O O H H H H H H H H H H H H H H H H H H","mol-121311","353.291","1.75","0.21","4.79","3.25","4.12","2.58","C1"
"H3 C7 N1 O2 F4","c1c(cc2c(c1C(F)(F)F)ONO2)F","0.725","4.793","0","Multiple Molecules - Open Babel Depiction                          F F F F N O O H H H","mol-115785","209.098","1.753","-2.315","4.793","0.725","4.123","0.055","C1"
"H8 C13 N1 O2 F3","c1ccc(cc1)c1cccc2c1ON(C(F)(F)F)O2","0.509","4.794","0","Multiple Molecules - Open Babel Depiction                                        F F F N O O H H H H H H H H","mol-115421","267.203","1.754","-2.531","4.794","0.509","4.124","-0.161","C1"
"H18 C62 N2 O4 F24","c1c2c3c4c5c1c(=O)n(c(=O)c5cc1c4c4c5c3c(cc3c5c(cc4c4c1c1c(cc(c(c1)C(F)(F)F)C(F)(F)F)c1c4cc(c(c1)C(F)(F)F)C(F)(F)F)c(=O)n(c3=O)C)c1c2c2cc(c(cc2c2c1cc(c(c2)C(F)(F)F)C(F)(F)F)C(F)(F)F)C(F)(F)F)C","2.508","4.795","0","Multiple Molecules - Open Babel Depiction                                                                                                                                                             N N O O O O H H H H H H H H H H F F F F F F F F F F F F F F F F F F F F F F F F H H H H H H H H","mol-62259","655.389","1.755","-0.532","4.795","2.508","4.125","1.838","C2"
"H10 C10 N1 O4 F3","COCCOc1cccc2c1ON(C(F)(F)F)O2","","4.796","0","Multiple Molecules - Open Babel Depiction                                     F F F N O O O O H H H H H H H H H H","mol-114991","265.186","1.756","","4.796","","4.126","","C1"
"H4 C7 N1 O3 F3","c1cc(c2c(c1)ON(C(F)(F)F)O2)O","3.341","4.799","0","Multiple Molecules - Open Babel Depiction                           F F F N O O O H H H H","mol-114468","207.107","1.759","0.301","4.799","3.341","4.129","2.671","C1"
"H3 C7 N1 Cl1 O2 F3","c1c(cc2c(c1C(F)(F)F)ONO2)Cl","0.752","4.801","0","Multiple Molecules - Open Babel Depiction                          Cl F F F N O O H H H","mol-97493","225.552","1.761","-2.288","4.801","0.752","4.131","0.082","C1"
"H6 C9 N1 O2 F3","C=Cc1cccc2c1ON(C(F)(F)F)O2","0.637","4.802","0","Multiple Molecules - Open Babel Depiction                               F F F N O O H H H H H H","mol-105963","217.145","1.762","-2.403","4.802","0.637","4.132","-0.033","C1"
"H7 C8 S1 N2 O1 F1","CC(=O)c1ccc2c(c1)n(F)s[nH]2","4.535","4.802","0","Multiple Molecules - Open Babel Depiction                              F N N O S H H H H H H H","mol-104043","198.217","1.762","1.495","4.802","4.535","4.132","3.865","C1"
"H3 C7 N1 O2 F4","c1c(c(cc2c1ONO2)F)C(F)(F)F","0.584","4.804","0","Multiple Molecules - Open Babel Depiction                          F F F F N O O H H H","mol-115369","209.098","1.764","-2.456","4.804","0.584","4.134","-0.086","C1"
"H4 C7 N1 O2 F3","c1ccc2c(c1)ON(C(F)(F)F)O2","-0.088","4.806","0","Multiple Molecules - Open Babel Depiction                          F F F N O O H H H H","mol-105673","191.107","1.766","-3.128","4.806","-0.088","4.136","-0.758","Cs"
"H3 C7 Br3 N1 O2 F1","c1c(cc2c(c1F)ONO2)C(Br)(Br)Br","2.89","4.807","0","Multiple Molecules - Open Babel Depiction                          Br Br Br F N O O H H H","mol-182476","391.815","1.767","-0.15","4.807","2.89","4.137","2.22","C1"
"H10 C12 N1 O2 F3","C1CCc2c(C1)c(C#N)c(c(c2C(F)(F)F)O)O","1.039","4.811","0","Multiple Molecules - Open Babel Depiction                                       F F F N O O H H H H H H H H H H","mol-116733","257.209","1.771","-2.001","4.811","1.039","4.141","0.369","C1"
"H5 C5 N2 O1 F1","c1cc(F)[nH]c1C(=O)N","0.271","4.812","0","H5 C5 N2 O1 F1 - Open Babel Depiction                     F N N O H H H H H   H5 C5 N2 O1 F1","mol-5977","128.104","1.772","-2.769","4.812","0.271","4.142","-0.399","Cs"