"Formula","Smiles","EA (eV)","IE (eV)","Charge","Svg","Task Id","MW","Oxidation Hydrogen","Reduction Hydrogen","Oxidation Lithium","Reduction Lithium","Oxidation Magnesium","Reduction Magnesium","Point Group"
"H3 C8 N1 Cl3 O2 F3","c1cc(c2c(c1C(Cl)(Cl)Cl)ONO2)C(F)(F)F","","4.931","0","Multiple Molecules - Open Babel Depiction                             Cl Cl Cl F F F N O O H H H","mol-115199","308.469","1.891","","4.931","","4.261","","C1"
"H3 C7 N1 O2 F4","c1cc2c(c(c1C(F)(F)F)F)ONO2","0.548","4.931","0","Multiple Molecules - Open Babel Depiction                          F F F F N O O H H H","mol-96508","209.098","1.891","-2.492","4.931","0.548","4.261","-0.122","C1"
"H3 C8 N1 Cl3 O2 F3","c1cc2c(c(c1C(F)(F)F)C(Cl)(Cl)Cl)ONO2","2.92","4.934","0","Multiple Molecules - Open Babel Depiction                             Cl Cl Cl F F F N O O H H H","mol-106291","308.469","1.894","-0.12","4.934","2.92","4.264","2.25","C1"
"H4 C9 N1 O2 F3","C#Cc1cccc2c1ON(C(F)(F)F)O2","0.693","4.935","0","Multiple Molecules - Open Babel Depiction                              F F F N O O H H H H","mol-106450","215.129","1.895","-2.347","4.935","0.693","4.265","0.023","C1"
"H3 C8 N1 Cl3 O2 F3","c1c(cc2c(c1C(Cl)(Cl)Cl)ONO2)C(F)(F)F","","4.937","0","Multiple Molecules - Open Babel Depiction                             Cl Cl Cl F F F N O O H H H","mol-106855","308.469","1.897","","4.937","","4.267","","C1"
"P2 H6 C6 N1 O4 F6","[N]([P@](=O)(C(F)(F)F)C(=O)C)[P@](=O)(C(=O)C)C(F)(F)F","1.171","4.938","-1","Multiple Molecules - Open Babel Depiction                                          . N P P O F F F O F F F O O H H H H H H","mol-161914","332.054","1.898","-1.869","4.938","1.171","4.268","0.501","Cs"
"H3 C8 Br3 N1 O2 F3","c1c(c(cc2c1ONO2)C(F)(F)F)C(Br)(Br)Br","3.507","4.941","0","Multiple Molecules - Open Babel Depiction                             Br Br Br F F F N O O H H H","mol-183238","441.822","1.901","0.467","4.941","3.507","4.271","2.837","C1"
"H5 C5 N2 O1 F1","c1c[nH]c(c1C(=N)O)F","0.873","4.941","0","H5 C5 N2 O1 F1 - Open Babel Depiction                     F N N O H H H H H   H5 C5 N2 O1 F1","mol-10431","128.104","1.901","-2.167","4.941","0.873","4.271","0.203","Cs"
"H3 C6 N2 O4 F1","c1c(cc2c(c1N(=O)=O)ONO2)F","2.273","4.942","0","Multiple Molecules - Open Babel Depiction                           F N N O O O O H H H","mol-115656","186.097","1.902","-0.767","4.942","2.273","4.272","1.603","C1"
"H4 C8 N1 O4 F3","c1c(cc2c(c1C(F)(F)F)ONO2)C(=O)O","1.168","4.944","0","Multiple Molecules - Open Babel Depiction                              F F F N O O O O H H H H","mol-107374","235.117","1.904","-1.872","4.944","1.168","4.274","0.498","C1"
"H4 C5 N1 O2 F1","c1cc(F)[nH]c1C(=O)O","0.463","4.947","0","H4 C5 N1 O2 F1 - Open Babel Depiction                    F N O O H H H H   H4 C5 N1 O2 F1","mol-6803","129.089","1.907","-2.577","4.947","0.463","4.277","-0.207","Cs"
"H12 C6 N3 O2 F1","CN1C[C@H](N(C)C[C@H]1F)N(=O)=O","1.599","4.952","0","H12 C6 N3 O2 F1 - Open Babel Depiction                                        H H H H H H H H H H H H O O N N N F   H12 C6 N3 O2 F1","mol-28201","177.177","1.912","-1.441","4.952","1.599","4.282","0.929","C1"
"H6 C9 N1 O3 F3","CC(=O)c1cccc2c1ON(C(F)(F)F)O2","1.202","4.954","0","Multiple Molecules - Open Babel Depiction                                F F F N O O O H H H H H H","mol-105929","233.144","1.914","-1.838","4.954","1.202","4.284","0.532","C1"
"H3 C8 N1 Cl3 O2 F3","c1c(c(cc2c1ONO2)C(F)(F)F)C(Cl)(Cl)Cl","3.295","4.956","0","Multiple Molecules - Open Babel Depiction                             Cl Cl Cl F F F N O O H H H","mol-106562","308.469","1.916","0.255","4.956","3.295","4.286","2.625","C1"
"H4 C6 N1 O1 F1","C1C=C(C#N)OC=C1F","0.693","4.957","0","H4 C6 N1 O1 F1 - Open Babel Depiction                     F N O H H H H   H4 C6 N1 O1 F1","mol-8780","125.1","1.917","-2.347","4.957","0.693","4.287","0.023","Cs"
"H3 C7 N2 O2 F1","c1cc2c(c(c1C#N)F)ONO2","0.883","4.963","0","Multiple Molecules - Open Babel Depiction                          F N N O O H H H","mol-106194","166.109","1.923","-2.157","4.963","0.883","4.293","0.213","C1"
"H3 C7 N2 O2 F1","c1c(cc2c(c1F)ONO2)C#N","0.953","4.967","0","Multiple Molecules - Open Babel Depiction                          F N N O O H H H","mol-106958","166.109","1.927","-2.087","4.967","0.953","4.297","0.283","C1"
"H3 C8 Br3 N1 O2 F3","c1cc2c(cc1C(Br)(Br)Br)ON(C(F)(F)F)O2","","4.967","0","Multiple Molecules - Open Babel Depiction                             Br Br Br F F F N O O H H H","mol-183357","441.822","1.927","","4.967","","4.297","","C1"
"H3 C7 N2 O2 F1","c1cc(c2c(c1C#N)ONO2)F","0.927","4.975","0","Multiple Molecules - Open Babel Depiction                          F N N O O H H H","mol-97579","166.109","1.935","-2.113","4.975","0.927","4.305","0.257","C1"
"H3 C8 Br3 N1 O2 F3","c1cc(c2c(c1)ON(C(Br)(Br)Br)O2)C(F)(F)F","4.894","4.976","0","Multiple Molecules - Open Babel Depiction                             Br Br Br F F F N O O H H H","mol-97604","441.822","1.936","1.854","4.976","4.894","4.306","4.224","C1"
"H3 C6 N2 O4 F1","c1c(c(cc2c1ONO2)N(=O)=O)F","2.118","4.988","0","Multiple Molecules - Open Babel Depiction                           F N N O O O O H H H","mol-106421","186.097","1.948","-0.922","4.988","2.118","4.318","1.448","C1"
"H6 C6 N3 O1 F1","C/C(=N/c1cnc(cn1)F)/O","0.851","4.989","0","Multiple Molecules - Open Babel Depiction                          F N N N O H H H H H H","mol-101260","155.13","1.949","-2.189","4.989","0.851","4.319","0.181","C1"
"H3 C8 N1 O2 F6","c1cc(c2c(c1C(F)(F)F)ONO2)C(F)(F)F","1.073","4.99","0","Multiple Molecules - Open Babel Depiction                             F F F F F F N O O H H H","mol-96676","259.105","1.95","-1.967","4.99","1.073","4.32","0.403","Cs"
"H3 C8 N1 O2 F6","c1cc2c(c(c1C(F)(F)F)C(F)(F)F)ONO2","0.964","4.991","0","Multiple Molecules - Open Babel Depiction                             F F F F F F N O O H H H","mol-96640","259.105","1.951","-2.076","4.991","0.964","4.321","0.294","C1"
"H3 C8 N1 O2 F6","c1c(cc2c(c1C(F)(F)F)ONO2)C(F)(F)F","0.9","4.993","0","Multiple Molecules - Open Babel Depiction                             F F F F F F N O O H H H","mol-105818","259.105","1.953","-2.14","4.993","0.9","4.323","0.23","C1"
"H3 C7 N1 Cl1 O2 F3","c1cc(c2c(c1)ON(C(F)(F)F)O2)Cl","1.293","4.997","0","Multiple Molecules - Open Babel Depiction                          Cl F F F N O O H H H","mol-105821","225.552","1.957","-1.747","4.997","1.293","4.327","0.623","C1"
"H3 C8 Br3 N1 O2 F3","c1cc2c(cc1C(F)(F)F)ON(C(Br)(Br)Br)O2","2.517","4.997","0","Multiple Molecules - Open Babel Depiction                             Br Br Br F F F N O O H H H","mol-182296","441.822","1.957","-0.523","4.997","2.517","4.327","1.847","C1"
"H3 C8 N1 O2 F6","c1c(c(cc2c1ONO2)C(F)(F)F)C(F)(F)F","0.851","4.999","0","Multiple Molecules - Open Babel Depiction                             F F F F F F N O O H H H","mol-97350","259.105","1.959","-2.189","4.999","0.851","4.329","0.181","C1"
"H6 C6 N1 O1 F1","C1=C(CC(=C1)F)C(=O)N","","5.001","0","H6 C6 N1 O1 F1 - Open Babel Depiction                      F N O H H H H H H   H6 C6 N1 O1 F1","mol-26395","127.116","1.961","-308.39","5.001","-305.35","4.331","-306.02","C1"
"H6 C9 N1 O3 F3","CC(=O)c1ccc2c(c1)ON(C(F)(F)F)O2","1.084","5.01","0","Multiple Molecules - Open Babel Depiction                                F F F N O O O H H H H H H","mol-105347","233.144","1.97","-1.956","5.01","1.084","4.34","0.414","C1"
"H4 C8 N1 O4 F3","c1cc(c2c(c1)ON(C(F)(F)F)O2)C(=O)O","1.109","5.011","0","Multiple Molecules - Open Babel Depiction                              F F F N O O O O H H H H","mol-96400","235.117","1.971","-1.931","5.011","1.109","4.341","0.439","C1"
"H3 C8 N1 Cl3 O2 F3","c1cc(c2c(c1)ON(C(Cl)(Cl)Cl)O2)C(F)(F)F","","5.012","0","Multiple Molecules - Open Babel Depiction                             Cl Cl Cl F F F N O O H H H","mol-107631","308.469","1.972","","5.012","","4.342","","C1"
"H6 C6 N1 O2 F1","C1=COC=C([C@@H]1C(=N)O)F","0.12","5.019","0","H6 C6 N1 O2 F1 - Open Babel Depiction                            F N O O H H H H H H   H6 C6 N1 O2 F1","mol-9120","143.116","1.979","-2.92","5.019","0.12","4.349","-0.55","C1"
"H3 C8 Br3 N1 O2 F3","c1cc(c2c(c1)ON(C(F)(F)F)O2)C(Br)(Br)Br","2.811","5.019","0","Multiple Molecules - Open Babel Depiction                             Br Br Br F F F N O O H H H","mol-182750","441.822","1.979","-0.229","5.019","2.811","4.349","2.141","C1"
"H9 C12 N2 O2 F3","C(=O)(C(F)(F)F)c1c(O)n(nc1C)c1ccccc1","1.472","5.021","0","Multiple Molecules - Open Babel Depiction                                        O F F F O N N H H H H H H H H H","mol-19353","270.207","1.981","-1.568","5.021","1.472","4.351","0.802","C1"
"H4 C5 N1 O2 F1","c1c[nH]c(c1C(=O)O)F","0.622","5.021","0","H4 C5 N1 O2 F1 - Open Babel Depiction                    F N O O H H H H   H4 C5 N1 O2 F1","mol-10769","129.089","1.981","-2.418","5.021","0.622","4.351","-0.048","Cs"
"H3 C7 N1 O2 F4","c1cc(c2c(c1)ON(C(F)(F)F)O2)F","3.5","5.021","0","Multiple Molecules - Open Babel Depiction                          F F F F N O O H H H","mol-96492","209.098","1.981","0.46","5.021","3.5","4.351","2.83","C1"
"H4 C6 S1 N3 O2 F1","c1cc2c(c(c1)N(=O)=O)[nH]sn2F","","5.023","0","Multiple Molecules - Open Babel Depiction                            F N N N O O S H H H H","mol-104478","201.178","1.983","","5.023","","4.353","","C1"
"H4 C7 N1 O3 F3","c1cc(c2c(c1)ON(O)O2)C(F)(F)F","0.439","5.027","0","Multiple Molecules - Open Babel Depiction                           F F F N O O O H H H H","mol-106508","207.107","1.987","-2.601","5.027","0.439","4.357","-0.231","C1"
"H4 C5 N1 O2 F1","c1c(c[nH]c1C(=O)O)F","0.51","5.031","0","H4 C5 N1 O2 F1 - Open Babel Depiction                    F N O O H H H H   H4 C5 N1 O2 F1","mol-9974","129.089","1.991","-2.53","5.031","0.51","4.361","-0.16","Cs"
"H3 C8 N1 Cl3 O2 F3","c1cc2c(cc1C(F)(F)F)ON(C(Cl)(Cl)Cl)O2","","5.031","0","Multiple Molecules - Open Babel Depiction                             Cl Cl Cl F F F N O O H H H","mol-96726","308.469","1.991","","5.031","","4.361","","C1"
"H5 C5 N2 O1 F1","c1c(c(c[nH]1)F)C(=N)O","-0.2","5.031","0","H5 C5 N2 O1 F1 - Open Babel Depiction                     F N N O H H H H H   H5 C5 N2 O1 F1","mol-9872","128.104","1.991","-3.24","5.031","-0.2","4.361","-0.87","Cs"
"H3 C8 N1 Cl3 O2 F3","c1cc2c(cc1C(Cl)(Cl)Cl)ON(C(F)(F)F)O2","2.699","5.034","0","Multiple Molecules - Open Babel Depiction                             Cl Cl Cl F F F N O O H H H","mol-107267","308.469","1.994","-0.341","5.034","2.699","4.364","2.029","C1"
"H3 C8 N2 O2 F3","c1cc2c(c(c1C#N)C(F)(F)F)ONO2","1.241","5.038","0","Multiple Molecules - Open Babel Depiction                             F F F N N O O H H H","mol-106591","216.117","1.998","-1.799","5.038","1.241","4.368","0.571","C1"
"H4 C6 N1 O1 F1","C1C=C(C#N)OC(=C1)F","0.735","5.038","0","H4 C6 N1 O1 F1 - Open Babel Depiction                     F N O H H H H   H4 C6 N1 O1 F1","mol-8804","125.1","1.998","-2.305","5.038","0.735","4.368","0.065","Cs"
"H3 C8 N2 O2 F3","c1c(C#N)c(cc2c1ONO2)C(F)(F)F","1.2","5.038","0","Multiple Molecules - Open Babel Depiction                             F F F N N O O H H H","mol-106695","216.117","1.998","-1.84","5.038","1.2","4.368","0.53","C1"
"H3 C8 N1 Cl3 O2 F3","c1cc(c2c(c1)ON(C(F)(F)F)O2)C(Cl)(Cl)Cl","2.679","5.043","0","Multiple Molecules - Open Babel Depiction                             Cl Cl Cl F F F N O O H H H","mol-97400","308.469","2.003","-0.361","5.043","2.679","4.373","2.009","C1"
"H3 C8 N2 O2 F3","c1cc(c2c(c1C#N)ONO2)C(F)(F)F","1.395","5.044","0","Multiple Molecules - Open Babel Depiction                             F F F N N O O H H H","mol-97983","216.117","2.004","-1.645","5.044","1.395","4.374","0.725","C1"
"H7 C8 S1 N2 O1 F1","CC(=O)n1c2ccccc2n(F)s1","","5.045","0","Multiple Molecules - Open Babel Depiction                              F N N O S H H H H H H H","mol-109125","198.217","2.005","","5.045","","4.375","","C1"
"H3 C8 N2 O2 F3","c1c(cc2c(c1C(F)(F)F)ONO2)C#N","1.117","5.046","0","Multiple Molecules - Open Babel Depiction                             F F F N N O O H H H","mol-97986","216.117","2.006","-1.923","5.046","1.117","4.376","0.447","C1"
"H3 C8 N2 O2 F3","c1c(C#N)c2c(cc1C(F)(F)F)ONO2","1.199","5.047","0","Multiple Molecules - Open Babel Depiction                             F F F N N O O H H H","mol-97749","216.117","2.007","-1.841","5.047","1.199","4.377","0.529","C1"
"H3 C7 N2 O2 F1","c1cc(c2c(c1)ON(C#N)O2)F","","5.047","0","Multiple Molecules - Open Babel Depiction                          F N N O O H H H","mol-106202","166.109","2.007","","5.047","","4.377","","C1"
"H3 C6 N2 O4 F1","c1cc(c2c(c1F)ONO2)N(=O)=O","2.167","5.047","0","Multiple Molecules - Open Babel Depiction                           F N N O O O O H H H","mol-96461","186.097","2.007","-0.873","5.047","2.167","4.377","1.497","C1"
"H2 C4 N1 O4 F1","C1=C(F)OC=C(N(=O)=O)O1","2.198","5.047","0","H2 C4 N1 O4 F1 - Open Babel Depiction                    F N O O O O H H   H2 C4 N1 O4 F1","mol-39383","147.061","2.007","-0.842","5.047","2.198","4.377","1.528","Cs"
"H4 C6 N1 O1 F1","C1C(=COC=C1F)C#N","0.541","5.05","0","H4 C6 N1 O1 F1 - Open Babel Depiction                     F N O H H H H   H4 C6 N1 O1 F1","mol-8791","125.1","2.01","-2.499","5.05","0.541","4.38","-0.129","Cs"
"H6 C6 N1 O2 F1","C1=COC(=C(C1)C(=N)O)F","0.735","5.052","0","H6 C6 N1 O2 F1 - Open Babel Depiction                       F N O O H H H H H H   H6 C6 N1 O2 F1","mol-9192","143.116","2.012","-2.305","5.052","0.735","4.382","0.065","Cs"
"H5 C5 N2 O1 F1","c1c(c[nH]c1C(=O)N)F","0.3","5.054","0","H5 C5 N2 O1 F1 - Open Babel Depiction                     F N N O H H H H H   H5 C5 N2 O1 F1","mol-5814","128.104","2.014","-2.74","5.054","0.3","4.384","-0.37","Cs"
"H4 C7 N1 O3 F3","c1cc2c(cc1C(F)(F)F)ON(O)O2","0.352","5.059","0","Multiple Molecules - Open Babel Depiction                           F F F N O O O H H H H","mol-115641","207.107","2.019","-2.688","5.059","0.352","4.389","-0.318","C1"
"H3 C6 N2 O4 F1","c1cc2c(c(c1N(=O)=O)F)ONO2","2.137","5.065","0","Multiple Molecules - Open Babel Depiction                           F N N O O O O H H H","mol-114953","186.097","2.025","-0.903","5.065","2.137","4.395","1.467","C1"
"H6 C6 N3 O1 F1","C/C(=N/c1c(F)nccn1)/O","0.904","5.068","0","Multiple Molecules - Open Babel Depiction                          F N N N O H H H H H H","mol-117204","155.13","2.028","-2.136","5.068","0.904","4.398","0.234","C1"
"H6 C6 N1 O2 F1","Cn1cc(c(c1)F)C(=O)O","0.226","5.069","0","H6 C6 N1 O2 F1 - Open Babel Depiction                       F N O O H H H H H H   H6 C6 N1 O2 F1","mol-5540","143.116","2.029","-2.814","5.069","0.226","4.399","-0.444","Cs"
"H4 C8 N1 O4 F3","c1cc2c(cc1C(=O)O)ON(C(F)(F)F)O2","0.978","5.07","0","Multiple Molecules - Open Babel Depiction                              F F F N O O O O H H H H","mol-114588","235.117","2.03","-2.062","5.07","0.978","4.4","0.308","C1"
"H6 C6 N3 O1 F1","C/C(=N/c1cncc(F)n1)/O","0.946","5.074","0","Multiple Molecules - Open Babel Depiction                          F N N N O H H H H H H","mol-99436","155.13","2.034","-2.094","5.074","0.946","4.404","0.276","C1"
"H3 C6 N2 O4 F1","c1c(cc2c(c1F)ONO2)N(=O)=O","2.212","5.079","0","Multiple Molecules - Open Babel Depiction                           F N N O O O O H H H","mol-96484","186.097","2.039","-0.828","5.079","2.212","4.409","1.542","C1"
"H3 C8 N2 O2 F3","c1cc2c(c(C#N)c1C(F)(F)F)ONO2","1.32","5.079","0","Multiple Molecules - Open Babel Depiction                             F F F N N O O H H H","mol-115572","216.117","2.039","-1.72","5.079","1.32","4.409","0.65","C1"
"H8 C12 N1 O2 F1","c1ccc(cc1)c1cccc2c1ON(F)O2","","5.08","0","Multiple Molecules - Open Babel Depiction                                     F N O O H H H H H H H H","mol-114492","217.196","2.04","","5.08","","4.41","","C1"
"H6 C6 S1 N1 O1 F1","C1=CSC(=C[C@@H]1F)C(=N)O","","5.089","0","H6 C6 S1 N1 O1 F1 - Open Babel Depiction                            F N O S H H H H H H   H6 C6 S1 N1 O1 F1","mol-16138","159.181","2.049","","5.089","","4.419","","C1"
"H2 C4 N1 O4 F1","C1=COC(=C(F)O1)N(=O)=O","1.952","5.094","0","H2 C4 N1 O4 F1 - Open Babel Depiction                    F N O O O O H H   H2 C4 N1 O4 F1","mol-39393","147.061","2.054","-1.088","5.094","1.952","4.424","1.282","C1"
"H14 C17 S1 N1 O4 F1","C(=O)(Oc1ccccc1)N1C(=O)O[C@H](C1)[C@@H](Sc1ccccc1)F","0.097","5.101","0","Multiple Molecules - Open Babel Depiction                                                          O O N O O S F H H H H H H H H H H H H H H","mol-24788","347.361","2.061","-2.943","5.101","0.097","4.431","-0.573","C1"
"H3 C8 N1 O2 F6","c1cc(c2c(c1)ON(C(F)(F)F)O2)C(F)(F)F","0.61","5.104","0","Multiple Molecules - Open Babel Depiction                             F F F F F F N O O H H H","mol-114454","259.105","2.064","-2.43","5.104","0.61","4.434","-0.06","C1"
"H14 C11 N1 O5 F1","COCCOCCOc1cccc2c1ON(F)O2","","5.106","0","Multiple Molecules - Open Babel Depiction                                         F N O O O O O H H H H H H H H H H H H H H","mol-121928","259.231","2.066","","5.106","","4.436","","C1"
"H3 C4 N2 O1 F1","c1c(F)ncc(=O)[nH]1","1.388","5.108","0","Multiple Molecules - Open Babel Depiction                   F N N O H H H","mol-100715","114.078","2.068","-1.652","5.108","1.388","4.438","0.718","Cs"
"H4 C5 N1 O3 F1","C1C=C(N(=O)=O)OC=C1F","2.182","5.109","0","H4 C5 N1 O3 F1 - Open Babel Depiction                      F N O O O H H H H   H4 C5 N1 O3 F1","mol-7245","145.089","2.069","-0.858","5.109","2.182","4.439","1.512","Cs"
"H14 C7 N3 O1 F1","CN1C[C@@H]([C]([NH])O)N(C)[C@H](C1)F","-0.962","5.11","0","H14 C7 N3 O1 F1 - Open Babel Depiction                                   H H H H H H H H H H H H H H O N N  . N F  .   H14 C7 N3 O1 F1","mol-28526","175.204","2.07","-4.002","5.11","-0.962","4.44","-1.632","C1"
"H3 C7 N2 O4 F3","c1cc2c(c(c1N(=O)=O)C(F)(F)F)ONO2","2.226","5.11","0","Multiple Molecules - Open Babel Depiction                              F F F N N O O O O H H H","mol-115562","236.105","2.07","-0.814","5.11","2.226","4.44","1.556","C1"
"H3 C7 N2 O4 F3","c1c(c(cc2c1ONO2)N(=O)=O)C(F)(F)F","2.278","5.113","0","Multiple Molecules - Open Babel Depiction                              F F F N N O O O O H H H","mol-107024","236.105","2.073","-0.762","5.113","2.278","4.443","1.608","C1"
"H10 C9 N1 O4 F1","COCCOc1cccc2c1ON(F)O2","","5.116","0","Multiple Molecules - Open Babel Depiction                                  F N O O O O H H H H H H H H H H","mol-114568","215.178","2.076","","5.116","","4.446","","C1"
"H18 C13 N1 O6 F1","COCCOCCOCCOc1cccc2c1ON(F)O2","","5.12","0","Multiple Molecules - Open Babel Depiction                                                F N O O O O O O H H H H H H H H H H H H H H H H H H","mol-115509","303.284","2.08","","5.12","","4.45","","C1"
"H3 C7 N2 O4 F3","c1cc(c2c(c1C(F)(F)F)ONO2)N(=O)=O","2.384","5.12","0","Multiple Molecules - Open Babel Depiction                              F F F N N O O O O H H H","mol-101334","236.105","2.08","-0.656","5.12","2.384","4.45","1.714","C1"
"H4 C5 N1 O2 F1","C1=C[C@@H](C(=C1)F)N(=O)=O","","5.12","0","Multiple Molecules - Open Babel Depiction                           F N O O H H H H","mol-89511","129.089","2.08","","5.12","","4.45","","C1"
"H6 C6 N1 O1 F1","C1=C[C@@H](C(=C1)C(=O)N)F","","5.121","0","Multiple Molecules - Open Babel Depiction                            F N O H H H H H H","mol-101350","127.116","2.081","","5.121","","4.451","","C1"
"H3 C7 N2 O4 F3","c1cc2c(c(c1C(F)(F)F)N(=O)=O)ONO2","2.306","5.123","0","Multiple Molecules - Open Babel Depiction                              F F F N N O O O O H H H","mol-106622","236.105","2.083","-0.734","5.123","2.306","4.453","1.636","C1"
"H6 C7 N1 O3 F1","COc1cccc2c1ON(F)O2","","5.125","0","Multiple Molecules - Open Babel Depiction                           F N O O O H H H H H H","mol-105506","171.126","2.085","","5.125","","4.455","","C1"