"Formula","Smiles","EA (eV)","IE (eV)","Charge","Svg","Task Id","MW","Oxidation Hydrogen","Reduction Hydrogen","Oxidation Lithium","Reduction Lithium","Oxidation Magnesium","Reduction Magnesium","Point Group"
"H8 C5 S2 N1 O1 F1","C1[C@@H](C(=N)O)S[C@H](CS1)F","","5.485","0","H8 C5 S2 N1 O1 F1 - Open Babel Depiction                                 S H H H H H H H H S O N F   H8 C5 S2 N1 O1 F1","mol-23172","181.252","2.445","-553.434","5.485","-550.394","4.815","-551.064","C1"
"H6 C6 N1 O2 F1","C1=COC=C([C@@H]1F)C(=N)O","","5.489","0","H6 C6 N1 O2 F1 - Open Babel Depiction                            F N O O H H H H H H   H6 C6 N1 O2 F1","mol-9101","143.116","2.449","","5.489","","4.819","","C1"
"H3 C7 N1 Cl1 O2 F3","c1cc(c2c(c1)ON(Cl)O2)C(F)(F)F","4.01","5.494","0","Multiple Molecules - Open Babel Depiction                          Cl F F F N O O H H H","mol-105917","225.552","2.454","0.97","5.494","4.01","4.824","3.34","C1"
"H3 C5 N2 O1 F3","c1c[nH]c(=O)c(C(F)(F)F)n1","1.583","5.504","0","Multiple Molecules - Open Babel Depiction                      F F F N N O H H H","mol-99235","164.085","2.464","-1.457","5.504","1.583","4.834","0.913","Cs"
"H4 C5 N1 O3 F1","C1=COC(=C(C1)N(=O)=O)F","1.863","5.509","0","H4 C5 N1 O3 F1 - Open Babel Depiction                      F N O O O H H H H   H4 C5 N1 O3 F1","mol-11476","145.089","2.469","-1.177","5.509","1.863","4.839","1.193","Cs"
"H6 C8 N1 O3 F1","CC(=O)c1cccc2c1ON(F)O2","","5.519","0","Multiple Molecules - Open Babel Depiction                             F N O O O H H H H H H","mol-105186","183.137","2.479","","5.519","","4.849","","C1"
"H4 C5 N1 O2 F1","C1=CC(=C(C1)F)N(=O)=O","1.923","5.52","0","H4 C5 N1 O2 F1 - Open Babel Depiction                     F N O O H H H H   H4 C5 N1 O2 F1","mol-26326","129.089","2.48","-1.117","5.52","1.923","4.85","1.253","Cs"
"H8 C5 S2 N1 O1 F1","C1CS[C@H]([C@@H](C(=N)O)S1)F","","5.522","0","H8 C5 S2 N1 O1 F1 - Open Babel Depiction                        S H H H H H H H H S O N F   H8 C5 S2 N1 O1 F1","mol-24024","181.252","2.482","","5.522","","4.852","","C1"
"H3 C7 N1 Cl1 O2 F3","c1cc2c(cc1C(F)(F)F)ON(Cl)O2","4.005","5.522","0","Multiple Molecules - Open Babel Depiction                          Cl F F F N O O H H H","mol-114407","225.552","2.482","0.965","5.522","4.005","4.852","3.335","C1"
"H3 C5 N2 O1 F3","c1c(C(F)(F)F)[nH]c(=O)cn1","1.622","5.54","0","Multiple Molecules - Open Babel Depiction                      F F F N N O H H H","mol-117148","164.085","2.5","-1.418","5.54","1.622","4.87","0.952","Cs"
"H3 C6 N1 Cl1 O2 F1","c1cc(c2c(c1)ON(F)O2)Cl","","5.558","0","Multiple Molecules - Open Babel Depiction                       Cl F N O O H H H","mol-95936","175.545","2.518","","5.558","","4.888","","C1"
"H6 C8 N1 O3 F1","CC(=O)c1ccc2c(c1)ON(F)O2","","5.558","0","Multiple Molecules - Open Babel Depiction                             F N O O O H H H H H H","mol-105226","183.137","2.518","","5.558","","4.888","","C1"
"H3 C7 N1 Cl3 O2 F1","c1cc2c(cc1C(Cl)(Cl)Cl)ON(F)O2","2.792","5.559","0","Multiple Molecules - Open Babel Depiction                          Cl Cl Cl F N O O H H H","mol-95987","258.462","2.519","-0.248","5.559","2.792","4.889","2.122","C1"
"H4 C7 N1 O4 F1","c1cc(c2c(c1)ON(F)O2)C(=O)O","","5.569","0","Multiple Molecules - Open Babel Depiction                           F N O O O O H H H H","mol-95886","185.109","2.529","","5.569","","4.899","","C1"
"H3 C7 Br3 N1 O2 F1","c1cc(c2c(c1)ON(F)O2)C(Br)(Br)Br","2.936","5.579","0","Multiple Molecules - Open Babel Depiction                          Br Br Br F N O O H H H","mol-179229","391.815","2.539","-0.104","5.579","2.936","4.909","2.266","C1"
"H3 C5 N2 O1 F3","c1c(C(F)(F)F)ncc(=O)[nH]1","1.373","5.586","0","Multiple Molecules - Open Babel Depiction                      F F F N N O H H H","mol-107863","164.085","2.546","-1.667","5.586","1.373","4.916","0.703","Cs"
"H4 C5 S1 N1 O2 F1","C1=CSC=C([C@@H]1F)N(=O)=O","2.157","5.589","0","H4 C5 S1 N1 O2 F1 - Open Babel Depiction                           F N O O S H H H H   H4 C5 S1 N1 O2 F1","mol-15266","161.154","2.549","-0.883","5.589","2.157","4.919","1.487","C1"
"H3 C6 N1 O2 F2","c1cc(c2c(c1)ON(F)O2)F","","5.59","0","Multiple Molecules - Open Babel Depiction                       F F N O O H H H","mol-105536","159.09","2.55","","5.59","","4.92","","C1"
"H3 C7 N1 Cl3 O2 F1","c1cc(c2c(c1)ON(F)O2)C(Cl)(Cl)Cl","2.794","5.606","0","Multiple Molecules - Open Babel Depiction                          Cl Cl Cl F N O O H H H","mol-105560","258.462","2.566","-0.246","5.606","2.794","4.936","2.124","C1"
"H9 C8 S1 N2 O2 F1","S([C@@H](C(=O)OCC)F)c1ncccn1","0.77","5.619","0","Multiple Molecules - Open Babel Depiction                                     S F N N O O H H H H H H H H H","mol-19201","216.233","2.579","-2.27","5.619","0.77","4.949","0.1","C1"
"H2 C4 S1 N1 O2 F1","c1c(csc1F)N(=O)=O","2.093","5.625","0","Multiple Molecules - Open Babel Depiction                    F N O O S H H","mol-87893","147.128","2.585","-0.947","5.625","2.093","4.955","1.423","Cs"
"H2 C4 S1 N1 O2 F1","c1csc(c1N(=O)=O)F","1.952","5.629","0","Multiple Molecules - Open Babel Depiction                    F N O O S H H","mol-100409","147.128","2.589","-1.088","5.629","1.952","4.959","1.282","Cs"
"H4 C7 N1 O4 F1","c1cc2c(cc1C(=O)O)ON(F)O2","","5.631","0","Multiple Molecules - Open Babel Depiction                           F N O O O O H H H H","mol-114336","185.109","2.591","","5.631","","4.961","","C1"
"H4 C5 N1 O2 F1","C1C=C(C(=C1)N(=O)=O)F","","5.635","0","H4 C5 N1 O2 F1 - Open Babel Depiction                     F N O O H H H H   H4 C5 N1 O2 F1","mol-26223","129.089","2.595","-318.43","5.635","-315.39","4.965","-316.06","Cs"
"H6 C4 S2 N1 O2 F1","C1[C@@H](F)SC[C@@H](N(=O)=O)S1","1.713","5.641","0","H6 C4 S2 N1 O2 F1 - Open Babel Depiction                      F N O O S S H H H H H H   H6 C4 S2 N1 O2 F1","mol-39744","183.224","2.601","-1.327","5.641","1.713","4.971","1.043","C1"
"H13 C10 N2 O3 F3","COCCOCCOc1c(C(F)(F)F)nccn1","1.103","5.653","0","Multiple Molecules - Open Babel Depiction                                       F F F N N O O O H H H H H H H H H H H H H","mol-117272","266.217","2.613","-1.937","5.653","1.103","4.983","0.433","C1"
"H3 C7 N1 O2 F4","c1cc(c2c(c1)ON(F)O2)C(F)(F)F","","5.66","0","Multiple Molecules - Open Babel Depiction                          F F F F N O O H H H","mol-114401","209.098","2.62","","5.66","","4.99","","C1"
"H13 C10 N2 O3 F3","COCCOCCOc1cncc(C(F)(F)F)n1","1.133","5.667","0","Multiple Molecules - Open Babel Depiction                                       F F F N N O O O H H H H H H H H H H H H H","mol-117523","266.217","2.627","-1.907","5.667","1.133","4.997","0.463","C1"
"H17 C12 N2 O4 F3","COCCOCCOCCOc1c(C(F)(F)F)nccn1","1.012","5.671","0","Multiple Molecules - Open Babel Depiction                                              F F F N N O O O O H H H H H H H H H H H H H H H H H","mol-117255","310.27","2.631","-2.028","5.671","1.012","5.001","0.342","C1"
"H13 C10 N2 O3 F3","COCCOCCOc1cnc(cn1)C(F)(F)F","0.983","5.681","0","Multiple Molecules - Open Babel Depiction                                       F F F N N O O O H H H H H H H H H H H H H","mol-117598","266.217","2.641","-2.057","5.681","0.983","5.011","0.313","C1"
"H17 C12 N2 O4 F3","COCCOCCOCCOc1cncc(C(F)(F)F)n1","1.139","5.685","0","Multiple Molecules - Open Babel Depiction                                              F F F N N O O O O H H H H H H H H H H H H H H H H H","mol-118060","310.27","2.645","-1.901","5.685","1.139","5.015","0.469","C1"
"Mg1 Si2 H12 C6 N1 O4 F6","N([Si](C(F)(F)F)(OC)OC)([Si](OC)(OC)C(F)(F)F)[Mg]","1.721","5.696","1","Multiple Molecules - Open Babel Depiction                                    N Si Si F F F O O O O F F F H H H H H H H H H H H H Mg","mol-162343","356.63","2.656","-1.319","5.696","1.721","5.026","1.051","C1"
"H17 C12 N2 O4 F3","COCCOCCOCCOc1cnc(cn1)C(F)(F)F","0.979","5.697","0","Multiple Molecules - Open Babel Depiction                                              F F F N N O O O O H H H H H H H H H H H H H H H H H","mol-117891","310.27","2.657","-2.061","5.697","0.979","5.027","0.309","C1"
"H9 C8 N2 O2 F3","COCCOc1c(C(F)(F)F)nccn1","1.117","5.699","0","Multiple Molecules - Open Babel Depiction                                F F F N N O O H H H H H H H H H","mol-109485","222.164","2.659","-1.923","5.699","1.117","5.029","0.447","C1"
"H3 C7 N1 O2 F4","c1cc2c(cc1C(F)(F)F)ON(F)O2","","5.704","0","Multiple Molecules - Open Babel Depiction                          F F F F N O O H H H","mol-105607","209.098","2.664","","5.704","","5.034","","C1"
"H7 C5 S2 N2 O5 F6","S(=O)(=O)(C(F)(F)F)[N]S(=O)(=O)C(F)(F)F.C(=O)N(C)C","-1.018","5.706","-1","Multiple Molecules - Open Babel Depiction                                   S S O O O O F F F F F F  . N H N O H H H H H H","mol-190447","353.24","2.666","-4.058","5.706","-1.018","5.036","-1.688","C1"
"H9 C8 N2 O2 F3","COCCOc1cncc(C(F)(F)F)n1","1.14","5.707","0","Multiple Molecules - Open Babel Depiction                                F F F N N O O H H H H H H H H H","mol-109707","222.164","2.667","-1.9","5.707","1.14","5.037","0.47","C1"
"H12 C7 N1 O1 F1","C1C[C@H](C[C@H](C1)F)C(=N)O","-0.811","5.709","0","Multiple Molecules - Open Babel Depiction                            F N O H H H H H H H H H H H H","mol-99503","145.175","2.669","-3.851","5.709","-0.811","5.039","-1.481","C1"
"H8 C16 N2 O4 F2","c1(cc2c3c4c1c(=O)n(c(=O)c4cc(c3c(=O)n(c2=O)C)F)C)F","2.646","5.71","0","Multiple Molecules - Open Babel Depiction                                                 N O O F N O O F H H H H H H H H","mol-61809","165.121","2.67","-0.394","5.71","2.646","5.04","1.976","C2h"
"H4 C6 N1 O1 F1","C1=COC(=C[C@@H]1F)C#N","","5.715","0","H4 C6 N1 O1 F1 - Open Babel Depiction                     F N O H H H H   H4 C6 N1 O1 F1","mol-8781","125.1","2.675","","5.715","","5.045","","C1"
"H3 C7 N2 O2 F1","c1cc(C#N)c2c(c1)ON(F)O2","","5.718","0","Multiple Molecules - Open Babel Depiction                          F N N O O H H H","mol-105480","166.109","2.678","","5.718","","5.048","","C1"
"H3 C7 N2 O2 F1","c1cc2c(cc1C#N)ON(F)O2","","5.722","0","Multiple Molecules - Open Babel Depiction                          F N N O O H H H","mol-105739","166.109","2.682","","5.722","","5.052","","C1"
"H9 C8 N2 O2 F3","COCCOc1cnc(cn1)C(F)(F)F","0.989","5.727","0","Multiple Molecules - Open Babel Depiction                                F F F N N O O H H H H H H H H H","mol-117021","222.164","2.687","-2.051","5.727","0.989","5.057","0.319","C1"
"H17 C11 S2 N3 O4 F6","S(=O)(=O)([N]S(=O)(=O)C(F)(F)F)C(F)(F)F.C(CCC)N1[C@H](C)N(C=C1)C","","5.73","0","Multiple Molecules - Open Babel Depiction                                                    S  . N O O S F F F O O F F F N N H H H H H H H H H H H H H H H H H","mol-36654","433.391","2.69","","5.73","","5.06","","C1"
"H2 C4 S1 N1 O2 F1","c1c(c(cs1)N(=O)=O)F","2.089","5.74","0","Multiple Molecules - Open Babel Depiction                    F N O O S H H","mol-100275","147.128","2.7","-0.951","5.74","2.089","5.07","1.419","Cs"
"H5 C6 N2 O1 F3","COc1c(C(F)(F)F)nccn1","1.132","5.743","0","Multiple Molecules - Open Babel Depiction                         F F F N N O H H H H H","mol-99106","178.112","2.703","-1.908","5.743","1.132","5.073","0.462","Cs"
"H5 C6 N2 O1 F3","COc1cncc(C(F)(F)F)n1","1.152","5.749","0","Multiple Molecules - Open Babel Depiction                         F F F N N O H H H H H","mol-107625","178.112","2.709","-1.888","5.749","1.152","5.079","0.482","Cs"
"H4 C6 N1 O1 F1","C1=COC=C(C#N)[C@@H]1F","0.901","5.773","0","H4 C6 N1 O1 F1 - Open Babel Depiction                          F N O H H H H   H4 C6 N1 O1 F1","mol-8787","125.1","2.733","-2.139","5.773","0.901","5.103","0.231","C1"
"H5 C6 N2 O1 F3","COc1cnc(cn1)C(F)(F)F","0.998","5.778","0","Multiple Molecules - Open Babel Depiction                         F F F N N O H H H H H","mol-107532","178.112","2.738","-2.042","5.778","0.998","5.108","0.328","Cs"
"H2 C4 S1 N1 O2 F1","c1cc(N(=O)=O)sc1F","2.206","5.782","0","Multiple Molecules - Open Babel Depiction                    F N O O S H H","mol-99921","147.128","2.742","-0.834","5.782","2.206","5.112","1.536","Cs"
"H4 C5 N1 O2 F1","C1=C[C@@H](C(=C1)N(=O)=O)F","2.466","5.792","0","Multiple Molecules - Open Babel Depiction                      F N O O H H H H","mol-89502","129.089","2.752","-0.574","5.792","2.466","5.122","1.796","C1"
"H1 C8 N1 O3 F4","O=C1c2c(C(=O)N1O)c(F)c(c(c2F)F)F","2.247","5.823","0","Multiple Molecules - Open Babel Depiction                            O N O F O F F F H","mol-26839","235.092","2.783","-0.793","5.823","2.247","5.153","1.577","Cs"
"H3 C4 S2 N2 O4 F6","S(=O)(=O)(C(F)(F)F)[N]S(=O)(=O)C(F)(F)F.CC#N","","5.828","-1","Multiple Molecules - Open Babel Depiction                              S S O O O O F F F F F F  . N N H H H","mol-190450","321.198","2.788","","5.828","","5.158","","C1"
"H2 C4 S1 N1 O2 F1","c1c(csc1N(=O)=O)F","2.331","5.83","0","Multiple Molecules - Open Babel Depiction                    F N O O S H H","mol-88125","147.128","2.79","-0.709","5.83","2.331","5.16","1.661","Cs"
"H10 C6 N1 O1 F1","C1C[C@H]([C@H](C1)F)C(=N)O","-0.749","5.841","0","H10 C6 N1 O1 F1 - Open Babel Depiction                                   H H H H H H H H H H O N F   H10 C6 N1 O1 F1","mol-28125","131.148","2.801","-3.789","5.841","-0.749","5.171","-1.419","C1"
"H12 C7 N1 O1 F1","C1CC[C@H]([C@H](C1)C(=N)O)F","","5.884","0","H12 C7 N1 O1 F1 - Open Babel Depiction                            H H H H H H H H H H H H O N F   H12 C7 N1 O1 F1","mol-25652","145.175","2.844","-349.879","5.884","-346.839","5.214","-347.509","C1"
"H5 C6 N2 O1 F1","CC(=O)c1c(F)nccn1","1.735","5.894","0","Multiple Molecules - Open Babel Depiction                        F N N O H H H H H","mol-98399","140.115","2.854","-1.305","5.894","1.735","5.224","1.065","Cs"
"H3 C6 N2 O4 F1","c1cc2c(cc1N(=O)=O)ON(F)O2","","5.894","0","Multiple Molecules - Open Babel Depiction                           F N N O O O O H H H","mol-114270","186.097","2.854","","5.894","","5.224","","C1"
"H5 C6 N2 O1 F1","CC(=O)c1cncc(F)n1","1.786","5.902","0","Multiple Molecules - Open Babel Depiction                        F N N O H H H H H","mol-100685","140.115","2.862","-1.254","5.902","1.786","5.232","1.116","Cs"
"H5 C7 N2 O1 F3","CC(=O)c1cncc(C(F)(F)F)n1","1.818","5.903","0","Multiple Molecules - Open Babel Depiction                           F F F N N O H H H H H","mol-116739","190.123","2.863","-1.222","5.903","1.818","5.233","1.148","Cs"
"H5 C7 N2 O1 F3","CC(=O)c1cnc(cn1)C(F)(F)F","1.97","5.913","0","Multiple Molecules - Open Babel Depiction                           F F F N N O H H H H H","mol-109324","190.123","2.873","-1.07","5.913","1.97","5.243","1.3","Cs"
"H5 C7 N2 O1 F3","CC(=O)c1c(C(F)(F)F)nccn1","1.775","5.917","0","Multiple Molecules - Open Babel Depiction                           F F F N N O H H H H H","mol-107423","190.123","2.877","-1.265","5.917","1.775","5.247","1.105","C1"
"H5 C6 N2 O1 F1","CC(=O)c1cnc(cn1)F","1.545","5.926","0","Multiple Molecules - Open Babel Depiction                        F N N O H H H H H","mol-98455","140.115","2.886","-1.495","5.926","1.545","5.256","0.875","Cs"
"Mg1 P2 H6 C4 N1 O2 F6","[N]1[P@](C(F)(F)F)(C)O[Mg]O[P@@]1(C)C(F)(F)F","1.079","5.951","1","Multiple Molecules - Open Babel Depiction                                      . N P P O F F F O F F F Mg H H H H H H","mol-161729","300.339","2.911","-1.961","5.951","1.079","5.281","0.409","Cs"
"H10 C6 N1 O1 F1","C1C[C@H](C[C@@H]1C(=N)O)F","-0.593","5.953","0","H10 C6 N1 O1 F1 - Open Babel Depiction                             H H H H H H H H H H O N F   H10 C6 N1 O1 F1","mol-28113","131.148","2.913","-3.633","5.953","-0.593","5.283","-1.263","C1"
"H6 C6 S2 N1 O7 F6","S(=O)(=O)(C(F)(F)F)[N]S(=O)(=O)C(F)(F)F.C1(=O)OC[C@@H](O1)C","-0.81","5.953","-1","Multiple Molecules - Open Babel Depiction                                     S S O O O O F F F F F F  . N O O O H H H H H H","mol-190466","382.235","2.913","-3.85","5.953","-0.81","5.283","-1.48","C1"
"H4 C5 N1 O2 F1","C1=C[C@H](C(=C1)N(=O)=O)F","2.354","5.963","0","H4 C5 N1 O2 F1 - Open Babel Depiction                     F N O O H H H H   H4 C5 N1 O2 F1","mol-26232","129.089","2.923","-0.686","5.963","2.354","5.293","1.684","C1"
"H12 C7 N1 O1 F1","C1C[C@H](CC[C@@H]1C(=N)O)F","","5.989","0","H12 C7 N1 O1 F1 - Open Babel Depiction                                H H H H H H H H H H H H O N F   H12 C7 N1 O1 F1","mol-25129","145.175","2.949","-349.798","5.989","-346.758","5.319","-347.428","Cs"
"H2 C4 S1 N1 O2 F1","c1csc(c1F)N(=O)=O","2.189","5.999","0","Multiple Molecules - Open Babel Depiction                    F N O O S H H","mol-88032","147.128","2.959","-0.851","5.999","2.189","5.329","1.519","Cs"
"H20 C9 S1 N1 O3 F3","[N](CC)(CC)(CC)CC.C(S([O])([O])[O])(F)(F)F","-0.686","6.006","0","Multiple Molecules - Open Babel Depiction                                        N S F F F  . O  . O  . O H H H H H H H H H H H H H H H H H H H H","mol-36685","279.32","2.966","-3.726","6.006","-0.686","5.336","-1.356","C1"
"H10 C6 N1 O1 F1","C1CCC(C1)(C(=N)O)F","","6.089","0","H10 C6 N1 O1 F1 - Open Babel Depiction                        H H H H H H H H H H O N F   H10 C6 N1 O1 F1","mol-27769","131.148","3.049","","6.089","","5.419","","C1"
"H8 C5 N1 O2 F1","C1CCC(C1)(F)N(=O)=O","1.71","6.126","0","H8 C5 N1 O2 F1 - Open Babel Depiction                       O H H H H H H H H O N F   H8 C5 N1 O2 F1","mol-27807","133.121","3.086","-1.33","6.126","1.71","5.456","1.04","C1"
"H2 C5 S1 N1 O2 F3","c1csc(c1C(F)(F)F)N(=O)=O","2.485","6.143","0","Multiple Molecules - Open Babel Depiction                       F F F N O O S H H","mol-102955","197.135","3.103","-0.555","6.143","2.485","5.473","1.815","Cs"
"H12 C7 N1 O1 F1","C1CCC(CC1)(C(=N)O)F","","6.147","0","H12 C7 N1 O1 F1 - Open Babel Depiction                           H H H H H H H H H H H H O N F   H12 C7 N1 O1 F1","mol-25225","145.175","3.107","","6.147","","5.477","","C1v"
"H2 C5 S1 N1 O2 F3","c1c(c(cs1)N(=O)=O)C(F)(F)F","2.141","6.169","0","Multiple Molecules - Open Babel Depiction                       F F F N O O S H H","mol-92743","197.135","3.129","-0.899","6.169","2.141","5.499","1.471","Cs"
"Ca1 B1 H7 C3 N1 O1 F4","[Ca]O[CH]N(C)C.[B](F)(F)(F)F","0.232","6.178","1","Multiple Molecules - Open Babel Depiction                     Ca B F F F F H  . N O H H H H H H","mol-64681","199.976","3.138","-2.808","6.178","0.232","5.508","-0.438","C1"
"H2 C5 S1 N1 O2 F3","c1csc(c1N(=O)=O)C(F)(F)F","2.328","6.185","0","Multiple Molecules - Open Babel Depiction                       F F F N O O S H H","mol-103200","197.135","3.145","-0.712","6.185","2.328","5.515","1.658","Cs"
"H3 C6 N2 O2 F3","c1cnc(c(C(=O)O)n1)C(F)(F)F","1.757","6.218","0","Multiple Molecules - Open Babel Depiction                         F F F N N O O H H H","mol-117100","192.095","3.178","-1.283","6.218","1.757","5.548","1.087","C1"
"H3 C3 S1 N1 O3 F3","C(S([O])([O])[O])(F)(F)F.CC#N","","6.226","-1","Multiple Molecules - Open Babel Depiction                   S F F F  . O  . O  . O N H H H","mol-190430","190.121","3.186","","6.226","","5.556","","C1"
"H2 C5 S1 N1 O2 F3","c1c(csc1N(=O)=O)C(F)(F)F","2.369","6.247","0","Multiple Molecules - Open Babel Depiction                       F F F N O O S H H","mol-111497","197.135","3.207","-0.671","6.247","2.369","5.577","1.699","Cs"
"H3 C6 N2 O2 F3","c1c(C(=O)O)nc(cn1)C(F)(F)F","1.815","6.254","0","Multiple Molecules - Open Babel Depiction                         F F F N N O O H H H","mol-108457","192.095","3.214","-1.225","6.254","1.815","5.584","1.145","Cs"
"H2 C5 S1 N1 O2 F3","c1c(csc1C(F)(F)F)N(=O)=O","2.155","6.254","0","Multiple Molecules - Open Babel Depiction                       F F F N O O S H H","mol-103396","197.135","3.214","-0.885","6.254","2.155","5.584","1.485","Cs"