"Formula","Smiles","EA (eV)","IE (eV)","Charge","Svg","Task Id","MW","Oxidation Hydrogen","Reduction Hydrogen","Oxidation Lithium","Reduction Lithium","Oxidation Magnesium","Reduction Magnesium","Point Group"
"H3 C7 N1 Cl1 O2 F3","c1c(c(cc2c1ONO2)Cl)C(F)(F)F","0.601","4.816","0","Multiple Molecules - Open Babel Depiction                          Cl F F F N O O H H H","mol-115226","225.552","1.776","-2.439","4.816","0.601","4.146","-0.069","C1"
"H3 C6 N1 Cl1 O2 F1","c1cc(c2c(c1Cl)ONO2)F","1.275","4.817","0","Multiple Molecules - Open Babel Depiction                       Cl F N O O H H H","mol-105741","175.545","1.777","-1.765","4.817","1.275","4.147","0.605","C1"
"H5 C7 S1 N2 O2 F1","c1cc2c(cc1C(=O)O)n(F)s[nH]2","","4.818","0","Multiple Molecules - Open Babel Depiction                            F N N O O S H H H H H","mol-99984","200.19","1.778","","4.818","","4.148","","C1"
"H5 C5 N2 O1 F1","c1c(c[nH]c1F)C(=N)O","-0.188","4.818","0","H5 C5 N2 O1 F1 - Open Babel Depiction                     F N N O H H H H H   H5 C5 N2 O1 F1","mol-5578","128.104","1.778","-3.228","4.818","-0.188","4.148","-0.858","Cs"
"H6 C8 N1 O3 F1","CC(=O)c1cc(c2c(c1)ONO2)F","1.16","4.82","0","Multiple Molecules - Open Babel Depiction                             F N O O O H H H H H H","mol-114029","183.137","1.78","-1.88","4.82","1.16","4.15","0.49","C1"
"H4 C9 N1 O2 F3","C#Cc1ccc(c2c1ONO2)C(F)(F)F","1.036","4.821","0","Multiple Molecules - Open Babel Depiction                              F F F N O O H H H H","mol-114891","215.129","1.781","-2.004","4.821","1.036","4.151","0.366","C1"
"H6 C6 S1 N1 O1 F1","C1=CSC(=C[C@@H]1C(=N)O)F","0.397","4.822","0","H6 C6 S1 N1 O1 F1 - Open Babel Depiction                       F N O S H H H H H H   H6 C6 S1 N1 O1 F1","mol-16167","159.181","1.782","-2.643","4.822","0.397","4.152","-0.273","C1"
"H4 C7 N1 O4 F1","c1cc(c2c(c1C(=O)O)ONO2)F","1.006","4.823","0","Multiple Molecules - Open Babel Depiction                           F N O O O O H H H H","mol-107128","185.109","1.783","-2.034","4.823","1.006","4.153","0.336","C1"
"H18 C46 N2 O4 F12","c1c2c3c4c5c1c(=O)n(c(=O)c5cc1c4c4c5c3c(cc3c5c(cc4c(c1)c1cc(ccc1C(F)(F)F)C(F)(F)F)c(=O)n(c3=O)C)cc2c1c(ccc(c1)C(F)(F)F)C(F)(F)F)C","2.256","4.824","0","Multiple Molecules - Open Babel Depiction                                                                                                                       N N O O O O H H H H H H H H H H F F F F F F F F F F F F H H H H H H H H","mol-62078","445.313","1.784","-0.784","4.824","2.256","4.154","1.586","C1"
"H4 C9 N1 O2 F3","C#Cc1cc(cc2c1ONO2)C(F)(F)F","0.855","4.83","0","Multiple Molecules - Open Babel Depiction                              F F F N O O H H H H","mol-106411","215.129","1.79","-2.185","4.83","0.855","4.16","0.185","C1"
"H11 C10 S2 N3 O4 F10","S(=O)(=O)(C(C(F)(F)F)(F)F)[CH]N([CH][C@@H]1N(S(=O)(=O)C(C(F)(F)F)(F)F)N1C)CC","3.888","4.831","0","Multiple Molecules - Open Babel Depiction                                                      S N O O F F S F F F O O F F F F F N  .  . N H H H H H H H H H H H","mol-59259","491.326","1.791","0.848","4.831","3.888","4.161","3.218","C1"
"H6 C9 N1 O3 F3","CC(=O)c1ccc(c2c1ONO2)C(F)(F)F","1.493","4.833","0","Multiple Molecules - Open Babel Depiction                                F F F N O O O H H H H H H","mol-106045","233.144","1.793","-1.547","4.833","1.493","4.163","0.823","C1"
"H3 C7 N2 O2 F1","c1cc2c(c(C#N)c1F)ONO2","1.056","4.834","0","Multiple Molecules - Open Babel Depiction                          F N N O O H H H","mol-115264","166.109","1.794","-1.984","4.834","1.056","4.164","0.386","C1"
"H4 C9 N1 O2 F3","C#Cc1c(ccc2c1ONO2)C(F)(F)F","0.955","4.836","0","Multiple Molecules - Open Babel Depiction                              F F F N O O H H H H","mol-105982","215.129","1.796","-2.085","4.836","0.955","4.166","0.285","C1"
"H10 C10 N1 O4 F1","C1CCc2c(C1)c(c(c(c2N(=O)=O)O)O)F","1.756","4.837","0","Multiple Molecules - Open Babel Depiction                                     F N O O O O H H H H H H H H H H","mol-116611","227.189","1.797","-1.284","4.837","1.756","4.167","1.086","C1"
"H6 C8 N1 O3 F1","CC(=O)c1ccc2c(c1F)ONO2","1.079","4.837","0","Multiple Molecules - Open Babel Depiction                             F N O O O H H H H H H","mol-105516","183.137","1.797","-1.961","4.837","1.079","4.167","0.409","C1"
"H3 C6 N1 O2 F2","c1cc(c2c(c1F)ONO2)F","","4.839","0","Multiple Molecules - Open Babel Depiction                       F F N O O H H H","mol-95802","159.09","1.799","","4.839","","4.169","","Cs"
"H6 C5 N1 O1 F1","C1=COC(=C[C@@H]1N)F","-0.275","4.84","0","H6 C5 N1 O1 F1 - Open Babel Depiction                    F N O H H H H H H   H6 C5 N1 O1 F1","mol-8504","115.106","1.8","-3.315","4.84","-0.275","4.17","-0.945","C1"
"H6 C9 N1 O3 F3","CC(=O)c1cc(cc2c1ONO2)C(F)(F)F","1.346","4.843","0","Multiple Molecules - Open Babel Depiction                                F F F N O O O H H H H H H","mol-105499","233.144","1.803","-1.694","4.843","1.346","4.173","0.676","C1"
"H3 C7 N1 Cl3 O2 F1","c1c(cc2c(c1F)ONO2)C(Cl)(Cl)Cl","2.764","4.844","0","Multiple Molecules - Open Babel Depiction                          Cl Cl Cl F N O O H H H","mol-96711","258.462","1.804","-0.276","4.844","2.764","4.174","2.094","C1"
"H4 C7 N1 O4 F1","c1cc(c2c(c1)ON(C(=O)O)O2)F","","4.845","0","Multiple Molecules - Open Babel Depiction                           F N O O O O H H H H","mol-114879","185.109","1.805","","4.845","","4.175","","C1"
"H6 C9 N1 O3 F3","CC(=O)c1ccc2c(c1C(F)(F)F)ONO2","1.332","4.85","0","Multiple Molecules - Open Babel Depiction                                F F F N O O O H H H H H H","mol-114379","233.144","1.81","-1.708","4.85","1.332","4.18","0.662","C1"
"H7 C6 N2 O1 F1","Cn1ccc(c1F)C(=N)O","0.825","4.853","0","H7 C6 N2 O1 F1 - Open Babel Depiction                        N H H H H H H H O N F   H7 C6 N2 O1 F1","mol-4423","142.131","1.813","-2.215","4.853","0.825","4.183","0.155","Cs"
"H3 C7 N2 O2 F1","c1c(C#N)c2c(cc1F)ONO2","1.082","4.855","0","Multiple Molecules - Open Babel Depiction                          F N N O O H H H","mol-97349","166.109","1.815","-1.958","4.855","1.082","4.185","0.412","C1"
"H14 C50 N2 O4 F24","c1c2c3c4c5c1c(=O)n(c(=O)c5cc1c4c4c5c3c(cc3c5c(cc4c(c1)c1c(c(cc(c1C(F)(F)F)C(F)(F)F)C(F)(F)F)C(F)(F)F)c(=O)n(c3=O)C)cc2c1c(c(cc(c1C(F)(F)F)C(F)(F)F)C(F)(F)F)C(F)(F)F)C","2.286","4.858","0","Multiple Molecules - Open Babel Depiction                                                                                                                                   N N O O O O H H H H H H H H H H F F F F F F F F F F F F F F F F F F F F F F F F H H H H","mol-62066","581.309","1.818","-0.754","4.858","2.286","4.188","1.616","C1"
"H6 C6 N1 O2 F1","Cn1c(ccc1F)C(=O)O","0.417","4.858","0","H6 C6 N1 O2 F1 - Open Babel Depiction                       F N O O H H H H H H   H6 C6 N1 O2 F1","mol-10737","143.116","1.818","-2.623","4.858","0.417","4.188","-0.253","Cs"
"H3 C7 N2 O2 F1","c1c(C#N)c(cc2c1ONO2)F","0.919","4.86","0","Multiple Molecules - Open Babel Depiction                          F N N O O H H H","mol-106545","166.109","1.82","-2.121","4.86","0.919","4.19","0.249","C1"
"H2 C5 N1 O2 F1","C1=COC(=C(C#N)O1)F","1.069","4.86","0","H2 C5 N1 O2 F1 - Open Babel Depiction                   F N O O H H   H2 C5 N1 O2 F1","mol-39419","127.073","1.82","-1.971","4.86","1.069","4.19","0.399","C1"
"H3 C7 N1 Cl3 O2 F1","c1cc(c2c(c1C(Cl)(Cl)Cl)ONO2)F","","4.863","0","Multiple Molecules - Open Babel Depiction                          Cl Cl Cl F N O O H H H","mol-114939","258.462","1.823","","4.863","","4.193","","C1"
"H6 C9 N1 O3 F3","CC(=O)c1cc2c(cc1C(F)(F)F)ONO2","1.322","4.864","0","Multiple Molecules - Open Babel Depiction                                F F F N O O O H H H H H H","mol-114274","233.144","1.824","-1.718","4.864","1.322","4.194","0.652","C1"
"H3 C7 N1 O2 F4","c1cc2c(cc1F)ON(C(F)(F)F)O2","0.141","4.865","0","Multiple Molecules - Open Babel Depiction                          F F F F N O O H H H","mol-106397","209.098","1.825","-2.899","4.865","0.141","4.195","-0.529","C1"
"H8 C12 N1 O2 F1","c1ccc(cc1)c1ccc2c(c1)ON(F)O2","","4.865","0","Multiple Molecules - Open Babel Depiction                                     F N O O H H H H H H H H","mol-114482","217.196","1.825","","4.865","","4.195","","C1"
"H4 C7 N1 O4 F1","c1cc2c(c(c1C(=O)O)F)ONO2","0.99","4.865","0","Multiple Molecules - Open Babel Depiction                           F N O O O O H H H H","mol-114849","185.109","1.825","-2.05","4.865","0.99","4.195","0.32","C1"
"H6 C6 N1 O2 F1","C1C(=COC=C1F)[C]([NH])O","0.52","4.868","0","H6 C6 N1 O2 F1 - Open Babel Depiction                       . F  . N O O H H H H H H   H6 C6 N1 O2 F1","mol-9108","143.116","1.828","-2.52","4.868","0.52","4.198","-0.15","C1"
"H3 C7 Br3 N1 O2 F1","c1cc2c(c(c1C(Br)(Br)Br)F)ONO2","2.78","4.869","0","Multiple Molecules - Open Babel Depiction                          Br Br Br F N O O H H H","mol-182388","391.815","1.829","-0.26","4.869","2.78","4.199","2.11","C1"
"H4 C7 N1 O4 F1","c1c(cc2c(c1F)ONO2)C(=O)O","1.06","4.869","0","Multiple Molecules - Open Babel Depiction                           F N O O O O H H H H","mol-97805","185.109","1.829","-1.98","4.869","1.06","4.199","0.39","C1"
"H3 C8 Br3 N1 O2 F3","c1c(cc2c(c1C(F)(F)F)ONO2)C(Br)(Br)Br","2.869","4.87","0","Multiple Molecules - Open Babel Depiction                             Br Br Br F F F N O O H H H","mol-183172","441.822","1.83","-0.171","4.87","2.869","4.2","2.199","C1"
"H14 C42 N2 O4 F8","c1c2c3c4c5c1c(=O)n(c(=O)c5cc1c4c4c5c3c(cc3c5c(cc4c(c1)c1c(c(cc(c1F)F)F)F)c(=O)n(c3=O)C)cc2c1c(c(cc(c1F)F)F)F)C","2.294","4.87","0","Multiple Molecules - Open Babel Depiction                                                                                                           N N O O O O F F F F F F F F H H H H H H H H H H H H H H","mol-62060","381.279","1.83","-0.746","4.87","2.294","4.2","1.624","Ci"
"H3 C7 N1 Cl1 O2 F3","c1cc2c(cc1Cl)ON(C(F)(F)F)O2","0.193","4.87","0","Multiple Molecules - Open Babel Depiction                          Cl F F F N O O H H H","mol-115219","225.552","1.83","-2.847","4.87","0.193","4.2","-0.477","C1"
"H4 C5 S1 N1 O2 F1","C1C=C(F)SC(=C1)N(=O)=O","2.246","4.871","0","H4 C5 S1 N1 O2 F1 - Open Babel Depiction                      F N O O S H H H H   H4 C5 S1 N1 O2 F1","mol-15380","161.154","1.831","-0.794","4.871","2.246","4.201","1.576","Cs"
"H10 C11 N1 O4 F3","C1CCc2c(C1)c(c(c(c2N(=O)=O)O)O)C(F)(F)F","2.338","4.875","0","Multiple Molecules - Open Babel Depiction                                        F F F N O O O O H H H H H H H H H H","mol-116719","277.197","1.835","-0.702","4.875","2.338","4.205","1.668","C1"
"H6 C6 N1 O2 F1","Cn1cc(cc1F)C(=O)O","0.25","4.877","0","H6 C6 N1 O2 F1 - Open Babel Depiction                       F N O O H H H H H H   H6 C6 N1 O2 F1","mol-5078","143.116","1.837","-2.79","4.877","0.25","4.207","-0.42","Cs"
"H3 C7 N2 O2 F1","c1cc2c(cc1F)ON(C#N)O2","","4.885","0","Multiple Molecules - Open Babel Depiction                          F N N O O H H H","mol-106618","166.109","1.845","","4.885","","4.215","","C1"
"H3 C7 N1 Cl1 O2 F3","c1cc(c2c(c1C(F)(F)F)ONO2)Cl","1.295","4.886","0","Multiple Molecules - Open Babel Depiction                          Cl F F F N O O H H H","mol-109144","225.552","1.846","-1.745","4.886","1.295","4.216","0.625","C1"
"H3 C7 N1 Cl3 O2 F1","c1cc2c(c(c1C(Cl)(Cl)Cl)F)ONO2","2.691","4.886","0","Multiple Molecules - Open Babel Depiction                          Cl Cl Cl F N O O H H H","mol-114858","258.462","1.846","-0.349","4.886","2.691","4.216","2.021","C1"
"H6 C6 N1 O2 F1","C1C=C(C(=N)O)OC=C1F","0.61","4.887","0","H6 C6 N1 O2 F1 - Open Babel Depiction                       F N O O H H H H H H   H6 C6 N1 O2 F1","mol-9096","143.116","1.847","-2.43","4.887","0.61","4.217","-0.06","Cs"
"H5 C7 S1 N2 O2 F1","c1cc(c2c(c1)n(F)s[nH]2)C(=O)O","","4.889","0","Multiple Molecules - Open Babel Depiction                            F N N O O S H H H H H","mol-104477","200.19","1.849","","4.889","","4.219","","C1"
"H3 C7 N1 Cl1 O2 F3","c1c(cc2c(c1Cl)ONO2)C(F)(F)F","0.659","4.889","0","Multiple Molecules - Open Babel Depiction                          Cl F F F N O O H H H","mol-114673","225.552","1.849","-2.381","4.889","0.659","4.219","-0.011","C1"
"H4 C8 N1 O4 F3","c1cc(c2c(c1C(=O)O)ONO2)C(F)(F)F","1.434","4.891","0","Multiple Molecules - Open Babel Depiction                              F F F N O O O O H H H H","mol-107362","235.117","1.851","-1.606","4.891","1.434","4.221","0.764","C1"
"H3 C6 N2 O4 F1","c1cc2c(c(c1F)N(=O)=O)ONO2","2.187","4.891","0","Multiple Molecules - Open Babel Depiction                           F N N O O O O H H H","mol-106381","186.097","1.851","-0.853","4.891","2.187","4.221","1.517","C1"
"H12 C42 N2 O4 F10","c1c2c3c4c5c1c(=O)n(c(=O)c5cc1c4c4c5c3c(cc3c5c(cc4c(c1)c1c(c(c(c(c1F)F)F)F)F)c(=O)n(c3=O)C)cc2c1c(c(c(c(c1F)F)F)F)F)C","2.313","4.892","0","Multiple Molecules - Open Babel Depiction                                                                                                           N N O O O O F F F F F F F F F F H H H H H H H H H H H H","mol-62062","399.27","1.852","-0.727","4.892","2.313","4.222","1.643","Ci"
"H6 C9 N1 O3 F3","CC(=O)c1cc(c2c(c1)ONO2)C(F)(F)F","1.24","4.892","0","Multiple Molecules - Open Babel Depiction                                F F F N O O O H H H H H H","mol-109242","233.144","1.852","-1.8","4.892","1.24","4.222","0.57","C1"
"H3 C7 Br3 N1 O2 F1","c1cc(c2c(c1)ON(C(Br)(Br)Br)O2)F","5.034","4.894","0","Multiple Molecules - Open Babel Depiction                          Br Br Br F N O O H H H","mol-182459","391.815","1.854","1.994","4.894","5.034","4.224","4.364","C1"
"H4 C5 S1 N1 O2 F1","C1C(=CSC=C1N(=O)=O)F","2.064","4.894","0","H4 C5 S1 N1 O2 F1 - Open Babel Depiction                      F N O O S H H H H   H4 C5 S1 N1 O2 F1","mol-15368","161.154","1.854","-0.976","4.894","2.064","4.224","1.394","Cs"
"H22 C54 N2 O4 F8","c1c2c3c4c5c1c(=O)n(c(=O)c5cc1c4c4c5c3c(cc3c5c(cc4c(c1c1cc(ccc1F)F)c1c(ccc(c1)F)F)c(=O)n(c3=O)C)c(c2c1c(ccc(c1)F)F)c1cc(ccc1F)F)C","2.298","4.895","0","Multiple Molecules - Open Babel Depiction                                                                                                                                       N N O O O O F F F F F F F F H H H H H H H H H H H H H H H H H H H H H H","mol-62070","457.375","1.855","-0.742","4.895","2.298","4.225","1.628","Ci"
"H3 C7 N1 Cl1 O2 F3","c1cc2c(c(c1C(F)(F)F)Cl)ONO2","1.421","4.896","0","Multiple Molecules - Open Babel Depiction                          Cl F F F N O O H H H","mol-105783","225.552","1.856","-1.619","4.896","1.421","4.226","0.751","C1"
"H7 C6 N2 O1 F1","Cn1ccc(c1C(=N)O)F","0.165","4.896","0","H7 C6 N2 O1 F1 - Open Babel Depiction                        N H H H H H H H O N F   H7 C6 N2 O1 F1","mol-4684","142.131","1.856","-2.875","4.896","0.165","4.226","-0.505","Cs"
"H7 C8 N2 O3 F1","C/C(=N/c1cccc2c1ON(F)O2)/O","","4.897","0","Multiple Molecules - Open Babel Depiction                               F N N O O O H H H H H H H","mol-116176","198.151","1.857","","4.897","","4.227","","C1"
"H6 C8 N1 O2 F1","C=Cc1ccc2c(c1)ON(F)O2","","4.899","0","Multiple Molecules - Open Babel Depiction                            F N O O H H H H H H","mol-96961","167.137","1.859","","4.899","","4.229","","C1"
"H6 C9 N1 O3 F3","CC(=O)c1c(ccc2c1ONO2)C(F)(F)F","1.366","4.899","0","Multiple Molecules - Open Babel Depiction                                F F F N O O O H H H H H H","mol-96180","233.144","1.859","-1.674","4.899","1.366","4.229","0.696","C1"
"H4 C8 N1 O4 F3","c1c(cc2c(c1C(=O)O)ONO2)C(F)(F)F","1.272","4.9","0","Multiple Molecules - Open Babel Depiction                              F F F N O O O O H H H H","mol-115855","235.117","1.86","-1.768","4.9","1.272","4.23","0.602","C1"
"H4 C6 N1 O3 F1","c1cc2c(cc1O)ON(F)O2","","4.903","0","Multiple Molecules - Open Babel Depiction                        F N O O O H H H H","mol-105458","157.099","1.863","","4.903","","4.233","","C1"
"H4 C8 N1 O4 F3","c1cc2c(c(c1C(=O)O)C(F)(F)F)ONO2","1.281","4.905","0","Multiple Molecules - Open Babel Depiction                              F F F N O O O O H H H H","mol-115082","235.117","1.865","-1.759","4.905","1.281","4.235","0.611","C1"
"H22 C62 N2 O4 F24","c1c2c3c4c5c1c(=O)n(c(=O)c5cc1c4c4c5c3c(cc3c5c(cc4c(c1c1cc(ccc1C(F)(F)F)C(F)(F)F)c1cc(ccc1C(F)(F)F)C(F)(F)F)c(=O)n(c3=O)C)c(c2c1c(ccc(c1)C(F)(F)F)C(F)(F)F)c1cc(ccc1C(F)(F)F)C(F)(F)F)C","2.33","4.906","0","Multiple Molecules - Open Babel Depiction                                                                                                                                                               N N O O O O H H H H H H H H H H F F F F F F F F F F F F F F F F F F F F F F F F H H H H H H H H H H H H","mol-62234","657.405","1.866","-0.71","4.906","2.33","4.236","1.66","C1"
"H4 C8 N1 O4 F3","c1cc2c(c(c1C(F)(F)F)C(=O)O)ONO2","1.333","4.906","0","Multiple Molecules - Open Babel Depiction                              F F F N O O O O H H H H","mol-97710","235.117","1.866","-1.707","4.906","1.333","4.236","0.663","C1"
"H4 C6 S1 N3 O2 F1","c1cc2c(c(c1)N(=O)=O)n(F)s[nH]2","5.114","4.907","0","Multiple Molecules - Open Babel Depiction                            F N N N O O S H H H H","mol-112623","201.178","1.867","2.074","4.907","5.114","4.237","4.444","C1"
"H3 C8 Br3 N1 O2 F3","c1cc(c2c(c1C(Br)(Br)Br)ONO2)C(F)(F)F","","4.909","0","Multiple Molecules - Open Babel Depiction                             Br Br Br F F F N O O H H H","mol-182657","441.822","1.869","","4.909","","4.239","","C1"
"H3 C8 N1 Cl3 O2 F3","c1c(cc2c(c1C(F)(F)F)ONO2)C(Cl)(Cl)Cl","2.762","4.911","0","Multiple Molecules - Open Babel Depiction                             Cl Cl Cl F F F N O O H H H","mol-116139","308.469","1.871","-0.278","4.911","2.762","4.241","2.092","C1"
"H3 C7 N1 O2 F4","c1c(cc2c(c1F)ONO2)C(F)(F)F","0.645","4.914","0","Multiple Molecules - Open Babel Depiction                          F F F F N O O H H H","mol-106312","209.098","1.874","-2.395","4.914","0.645","4.244","-0.025","C1"
"H3 C8 Br3 N1 O2 F3","c1cc2c(c(c1C(F)(F)F)C(Br)(Br)Br)ONO2","","4.915","0","Multiple Molecules - Open Babel Depiction                             Br Br Br F F F N O O H H H","mol-115666","441.822","1.875","","4.915","","4.245","","C1"
"H3 C7 N1 O2 F4","c1cc(c2c(c1C(F)(F)F)ONO2)F","0.649","4.916","0","Multiple Molecules - Open Babel Depiction                          F F F F N O O H H H","mol-114893","209.098","1.876","-2.391","4.916","0.649","4.246","-0.021","C1"
"H4 C8 N1 O4 F3","c1cc(c2c(c1)ON(C(=O)O)O2)C(F)(F)F","0.722","4.917","0","Multiple Molecules - Open Babel Depiction                              F F F N O O O O H H H H","mol-115171","235.117","1.877","-2.318","4.917","0.722","4.247","0.052","C1"
"H6 C6 N1 O2 F1","Cn1ccc(c1F)C(=O)O","0.576","4.921","0","H6 C6 N1 O2 F1 - Open Babel Depiction                       F N O O H H H H H H   H6 C6 N1 O2 F1","mol-5471","143.116","1.881","-2.464","4.921","0.576","4.251","-0.094","Cs"
"H4 C8 N1 O4 F3","c1cc2c(cc1C(F)(F)F)ON(C(=O)O)O2","","4.923","0","Multiple Molecules - Open Babel Depiction                              F F F N O O O O H H H H","mol-106495","235.117","1.883","","4.923","","4.253","","C1"
"H4 C8 N1 O4 F3","c1c(c(cc2c1ONO2)C(F)(F)F)C(=O)O","1.278","4.924","0","Multiple Molecules - Open Babel Depiction                              F F F N O O O O H H H H","mol-97953","235.117","1.884","-1.762","4.924","1.278","4.254","0.608","C1"
"H3 C7 N1 Cl3 O2 F1","c1cc(c2c(c1)ON(C(Cl)(Cl)Cl)O2)F","2.328","4.927","0","Multiple Molecules - Open Babel Depiction                          Cl Cl Cl F N O O H H H","mol-114941","258.462","1.887","-0.712","4.927","2.328","4.257","1.658","C1"
"H3 C8 N1 Cl3 O2 F3","c1cc2c(c(c1C(Cl)(Cl)Cl)C(F)(F)F)ONO2","2.759","4.93","0","Multiple Molecules - Open Babel Depiction                             Cl Cl Cl F F F N O O H H H","mol-97942","308.469","1.89","-0.281","4.93","2.759","4.26","2.089","C1"