"Formula","Smiles","EA (eV)","IE (eV)","Charge","Svg","Task Id","MW","Oxidation Hydrogen","Reduction Hydrogen","Oxidation Lithium","Reduction Lithium","Oxidation Magnesium","Reduction Magnesium","Point Group"
"H6 C7 N1 O3 F1","COc1cc(c2c(c1)ONO2)F","0.205","4.308","0","Multiple Molecules - Open Babel Depiction                           F N O O O H H H H H H","mol-96447","171.126","1.268","-2.835","4.308","0.205","3.638","-0.465","C1"
"H4 C7 S1 N3 O2 F3","c1cc(c2c(c1)n(N(=O)=O)s[nH]2)C(F)(F)F","3.02","4.308","0","Multiple Molecules - Open Babel Depiction                               F F F N N N O O S H H H H","mol-94121","251.186","1.268","-0.02","4.308","3.02","3.638","2.35","C1"
"H8 C12 N1 O2 F1","c1ccc(cc1)N1Oc2ccc(cc2O1)F","","4.316","0","Multiple Molecules - Open Babel Depiction                                     F N O O H H H H H H H H","mol-115449","217.196","1.276","","4.316","","3.646","","C1"
"H6 C7 N1 O3 F1","COc1ccc2c(c1F)ONO2","0.337","4.327","0","Multiple Molecules - Open Babel Depiction                           F N O O O H H H H H H","mol-100981","171.126","1.287","-2.703","4.327","0.337","3.657","-0.333","C1"
"H8 C12 N1 O2 F1","c1ccc(cc1)N1Oc2cccc(c2O1)F","","4.328","0","Multiple Molecules - Open Babel Depiction                                     F N O O H H H H H H H H","mol-115040","217.196","1.288","","4.328","","3.658","","C1"
"H6 C6 S1 N1 O1 F1","C/C(=N/c1c(ccs1)F)/O","0.298","4.329","0","Multiple Molecules - Open Babel Depiction                        F N O S H H H H H H","mol-112189","159.181","1.289","-2.742","4.329","0.298","3.659","-0.372","Cs"
"H4 C5 S2 N1 O1 F1","C1=C(C(=N)O)SC=C(F)S1","1.123","4.33","0","H4 C5 S2 N1 O1 F1 - Open Babel Depiction                     F N O S S H H H H   H4 C5 S2 N1 O1 F1","mol-39754","177.22","1.29","-1.917","4.33","1.123","3.66","0.453","C1"
"H10 C10 N1 O4 F3","COCCOc1ccc2c(c1)ON(C(F)(F)F)O2","-0.033","4.33","0","Multiple Molecules - Open Babel Depiction                                     F F F N O O O O H H H H H H H H H H","mol-115522","265.186","1.29","-3.073","4.33","-0.033","3.66","-0.703","C1"
"H7 C9 N2 O3 F3","C/C(=N/c1cc(c2c(c1)ONO2)C(F)(F)F)/O","0.557","4.335","0","Multiple Molecules - Open Babel Depiction                                  F F F N N O O O H H H H H H H","mol-116312","248.159","1.295","-2.483","4.335","0.557","3.665","-0.113","C1"
"H18 C14 N1 O6 F3","COCCOCCOCCOc1ccc2c(c1)ON(C(F)(F)F)O2","","4.338","0","Multiple Molecules - Open Babel Depiction                                                   F F F N O O O O O O H H H H H H H H H H H H H H H H H H","mol-116459","353.291","1.298","","4.338","","3.668","","C1"
"H18 C13 N1 O6 F1","COCCOCCOCCOc1ccc2c(c1F)ONO2","0.339","4.339","0","Multiple Molecules - Open Babel Depiction                                                F N O O O O O O H H H H H H H H H H H H H H H H H H","mol-115494","303.284","1.299","-2.701","4.339","0.339","3.669","-0.331","C1"
"H10 C9 N1 O4 F1","COCCOc1ccc2c(c1F)ONO2","0.358","4.339","0","Multiple Molecules - Open Babel Depiction                                  F N O O O O H H H H H H H H H H","mol-115016","215.178","1.299","-2.682","4.339","0.358","3.669","-0.312","C1"
"H7 C7 S1 N2 O1 F1","COc1ccc2c(c1)n(F)s[nH]2","","4.35","0","Multiple Molecules - Open Babel Depiction                            F N N O S H H H H H H H","mol-93718","186.207","1.31","","4.35","","3.68","","C1"
"H15 C7 N2 O1 F1","CN1C[C@@H](F)N(C)[C@H](C1)OC","-1.165","4.35","0","H15 C7 N2 O1 F1 - Open Babel Depiction                              H H H H H H H H H H H H H H H O N N F   H15 C7 N2 O1 F1","mol-28391","162.205","1.31","-4.205","4.35","-1.165","3.68","-1.835","C1"
"H6 C6 S1 N1 O1 F1","C/C(=N/c1ccsc1F)/O","0.351","4.353","0","Multiple Molecules - Open Babel Depiction                        F N O S H H H H H H","mol-112115","159.181","1.313","-2.689","4.353","0.351","3.683","-0.319","Cs"
"H14 C13 N1 O3 F3","C/C(=N/c1c2CCCCc2c(c(c1O)O)C(F)(F)F)/O","0.266","4.354","0","Multiple Molecules - Open Babel Depiction                                            F F F N O O O H H H H H H H H H H H H H H","mol-117102","289.25","1.314","-2.774","4.354","0.266","3.684","-0.404","C1"
"H14 C12 N1 O5 F3","COCCOCCOc1cc(c2c(c1)ONO2)C(F)(F)F","0.555","4.355","0","Multiple Molecules - Open Babel Depiction                                            F F F N O O O O O H H H H H H H H H H H H H H","mol-117152","309.238","1.315","-2.485","4.355","0.555","3.685","-0.115","C1"
"H5 C6 N2 O2 F1","c1cc2c(c(c1F)N)ONO2","-0.05","4.359","0","Multiple Molecules - Open Babel Depiction                         F N N O O H H H H H","mol-106301","156.115","1.319","-3.09","4.359","-0.05","3.689","-0.72","C1"
"H7 C7 N2 O2 F1","CNc1cccc2c1ON(F)O2","3.478","4.363","0","Multiple Molecules - Open Babel Depiction                            F N N O O H H H H H H H","mol-105879","170.141","1.323","0.438","4.363","3.478","3.693","2.808","C1"
"H12 C11 N1 O2 F3","CC(C)(C)N1Oc2ccc(cc2O1)C(F)(F)F","0.237","4.365","0","Multiple Molecules - Open Babel Depiction                                      F F F N O O H H H H H H H H H H H H","mol-114797","247.214","1.325","-2.803","4.365","0.237","3.695","-0.433","C1"
"H12 C11 N1 O2 F3","CC(C)(C)N1Oc2cccc(c2O1)C(F)(F)F","0.354","4.365","0","Multiple Molecules - Open Babel Depiction                                      F F F N O O H H H H H H H H H H H H","mol-114770","247.214","1.325","-2.686","4.365","0.354","3.695","-0.316","C1"
"H5 C6 S1 N2 O1 F1","c1cc2c(cc1O)n(F)s[nH]2","","4.366","0","Multiple Molecules - Open Babel Depiction                         F N N O S H H H H H","mol-104266","172.18","1.326","","4.366","","3.696","","C1"
"H14 C11 N1 O5 F1","COCCOCCOc1ccc2c(c1F)ONO2","0.339","4.366","0","Multiple Molecules - Open Babel Depiction                                         F N O O O O O H H H H H H H H H H H H H H","mol-115204","259.231","1.326","-2.701","4.366","0.339","3.696","-0.331","C1"
"H16 C13 N1 O2 F3","CN(C)c1c2CCCCc2c(c(c1O)O)C(F)(F)F","0.062","4.367","0","Multiple Molecules - Open Babel Depiction                                            F F F N O O H H H H H H H H H H H H H H H H","mol-116782","275.267","1.327","-2.978","4.367","0.062","3.697","-0.608","C1"
"H6 C8 N1 O2 F1","C=Cc1cc2c(cc1F)ONO2","0.601","4.371","0","Multiple Molecules - Open Babel Depiction                            F N O O H H H H H H","mol-96913","167.137","1.331","-2.439","4.371","0.601","3.701","-0.069","C1"
"H6 C8 N1 O3 F3","COc1ccc2c(c1)ON(C(F)(F)F)O2","-0.101","4.372","0","Multiple Molecules - Open Babel Depiction                              F F F N O O O H H H H H H","mol-106984","221.133","1.332","-3.141","4.372","-0.101","3.702","-0.771","C1"
"H6 C6 S1 N1 O1 F1","C/C(=N/c1cc(F)sc1)/O","0.139","4.372","0","Multiple Molecules - Open Babel Depiction                        F N O S H H H H H H","mol-112187","159.181","1.332","-2.901","4.372","0.139","3.702","-0.531","Cs"
"H15 C7 N2 O1 F1","CN1C[C@H](N(C)C[C@H]1F)OC","-1.17","4.374","0","H15 C7 N2 O1 F1 - Open Babel Depiction                                        H H H H H H H H H H H H H H H O N N F   H15 C7 N2 O1 F1","mol-28467","162.205","1.334","-4.21","4.374","-1.17","3.704","-1.84","C1"
"H6 C8 N1 O2 F1","C=CN1Oc2cccc(c2O1)F","","4.374","0","Multiple Molecules - Open Babel Depiction                            F N O O H H H H H H","mol-95645","167.137","1.334","","4.374","","3.704","","C1"
"H7 C8 N2 O3 F1","C/C(=N/c1cc(cc2c1ONO2)F)/O","0.436","4.374","0","Multiple Molecules - Open Babel Depiction                               F N N O O O H H H H H H H","mol-107441","198.151","1.334","-2.604","4.374","0.436","3.704","-0.234","C1"
"H8 C8 N1 O2 F1","CCN1Oc2cccc(c2O1)F","","4.376","0","Multiple Molecules - Open Babel Depiction                             F N O O H H H H H H H H","mol-114252","169.153","1.336","","4.376","","3.706","","C1"
"H6 C6 S1 N1 O1 F1","C/C(=N/c1cc(cs1)F)/O","0.398","4.377","0","Multiple Molecules - Open Babel Depiction                        F N O S H H H H H H","mol-103676","159.181","1.337","-2.642","4.377","0.398","3.707","-0.272","Cs"
"H6 C7 N1 O2 F1","Cc1cc2c(cc1F)ONO2","0.021","4.378","0","Multiple Molecules - Open Babel Depiction                          F N O O H H H H H H","mol-106604","155.126","1.338","-3.019","4.378","0.021","3.708","-0.649","C1"
"H8 C8 S1 N3 O1 F1","C/C(=N/n1c2ccccc2n(F)s1)/O","4.719","4.378","0","Multiple Molecules - Open Babel Depiction                                F N N N O S H H H H H H H H","mol-105624","213.232","1.338","1.679","4.378","4.719","3.708","4.049","C1"
"H14 C12 N1 O5 F3","COCCOCCOc1ccc2c(c1)ON(C(F)(F)F)O2","-0.154","4.378","0","Multiple Molecules - Open Babel Depiction                                            F F F N O O O O O H H H H H H H H H H H H H H","mol-115945","309.238","1.338","-3.194","4.378","-0.154","3.708","-0.824","C1"
"H6 C8 N1 O3 F3","COc1cc(c2c(c1)ONO2)C(F)(F)F","0.487","4.38","0","Multiple Molecules - Open Babel Depiction                              F F F N O O O H H H H H H","mol-116056","221.133","1.34","-2.553","4.38","0.487","3.71","-0.183","C1"
"H12 C10 N1 O2 F1","CC(C)(C)c1cc2c(cc1F)ONO2","-0.024","4.384","0","Multiple Molecules - Open Babel Depiction                                   F N O O H H H H H H H H H H H H","mol-115554","197.206","1.344","-3.064","4.384","-0.024","3.714","-0.694","C1"
"H5 C7 N2 O2 F3","c1cc(c2c(c1)ON(C(F)(F)F)O2)N","","4.385","0","Multiple Molecules - Open Babel Depiction                            F F F N N O O H H H H H","mol-114537","206.122","1.345","","4.385","","3.715","","C1"
"H8 C8 N1 O2 F1","CCc1cc2c(cc1F)ONO2","0.008","4.386","0","Multiple Molecules - Open Babel Depiction                             F N O O H H H H H H H H","mol-106282","169.153","1.346","-3.032","4.386","0.008","3.716","-0.662","C1"
"H10 C10 N1 O4 F3","COCCOc1cc(c2c(c1)ONO2)C(F)(F)F","0.553","4.388","0","Multiple Molecules - Open Babel Depiction                                     F F F N O O O O H H H H H H H H H H","mol-116333","265.186","1.348","-2.487","4.388","0.553","3.718","-0.117","C1"
"H4 C6 N1 O3 F1","c1c(cc2c(c1F)ONO2)O","0.236","4.388","0","Multiple Molecules - Open Babel Depiction                        F N O O O H H H H","mol-106720","157.099","1.348","-2.804","4.388","0.236","3.718","-0.434","C1"
"H8 C13 N1 O2 F3","c1ccc(cc1)N1Oc2cccc(c2O1)C(F)(F)F","","4.39","0","Multiple Molecules - Open Babel Depiction                                        F F F N O O H H H H H H H H","mol-109716","267.203","1.35","","4.39","","3.72","","C1"
"H18 C14 N1 O6 F3","COCCOCCOCCOc1ccc2c(c1C(F)(F)F)ONO2","0.479","4.396","0","Multiple Molecules - Open Babel Depiction                                                   F F F N O O O O O O H H H H H H H H H H H H H H H H H H","mol-174316","353.291","1.356","-2.561","4.396","0.479","3.726","-0.191","C1"
"H6 C8 N1 O3 F3","COc1ccc2c(c1C(F)(F)F)ONO2","0.503","4.398","0","Multiple Molecules - Open Babel Depiction                              F F F N O O O H H H H H H","mol-106418","221.133","1.358","-2.537","4.398","0.503","3.728","-0.167","C1"
"H7 C9 N2 O3 F3","C/C(=N/c1cc2c(cc1C(F)(F)F)ONO2)/O","0.429","4.399","0","Multiple Molecules - Open Babel Depiction                                  F F F N N O O O H H H H H H H","mol-116429","248.159","1.359","-2.611","4.399","0.429","3.729","-0.241","C1"
"H14 C12 N1 O5 F3","COCCOCCOc1ccc2c(c1C(F)(F)F)ONO2","0.468","4.399","0","Multiple Molecules - Open Babel Depiction                                            F F F N O O O O O H H H H H H H H H H H H H H","mol-116094","309.238","1.359","-2.572","4.399","0.468","3.729","-0.202","C1"
"H6 C7 N1 O3 F1","CON1Oc2ccc(cc2O1)F","1.486","4.4","0","Multiple Molecules - Open Babel Depiction                           F N O O O H H H H H H","mol-106348","171.126","1.36","-1.554","4.4","1.486","3.73","0.816","C1"
"H8 C12 N1 O2 F1","c1ccc(cc1)c1cc2c(cc1F)ONO2","0.394","4.401","0","Multiple Molecules - Open Babel Depiction                                     F N O O H H H H H H H H","mol-109406","217.196","1.361","-2.646","4.401","0.394","3.731","-0.276","C1"
"H14 C12 N1 O2 F3","CNc1c2CCCCc2c(c(c1O)O)C(F)(F)F","0.013","4.402","0","Multiple Molecules - Open Babel Depiction                                         F F F N O O H H H H H H H H H H H H H H","mol-117371","261.24","1.362","-3.027","4.402","0.013","3.732","-0.657","C1"
"H10 C10 N1 O4 F3","COCCOc1ccc2c(c1C(F)(F)F)ONO2","0.486","4.403","0","Multiple Molecules - Open Babel Depiction                                     F F F N O O O O H H H H H H H H H H","mol-115642","265.186","1.363","-2.554","4.403","0.486","3.733","-0.184","C1"
"H12 C10 N1 O2 F1","CC(C)(C)c1c(ccc2c1ONO2)F","0.003","4.406","0","Multiple Molecules - Open Babel Depiction                                   F N O O H H H H H H H H H H H H","mol-115120","197.206","1.366","-3.037","4.406","0.003","3.736","-0.667","C1"
"H6 C7 N1 O2 F1","CN1Oc2cccc(c2O1)F","","4.407","0","Multiple Molecules - Open Babel Depiction                          F N O O H H H H H H","mol-114793","155.126","1.367","","4.407","","3.737","","C1"
"H13 C6 N2 O1 F1","CN1CCN(C)[C@H]([C@H]1F)O","-1.155","4.407","0","H13 C6 N2 O1 F1 - Open Babel Depiction                                 H H H H H H H H H H H H H O N N F   H13 C6 N2 O1 F1","mol-28258","148.179","1.367","-4.195","4.407","-1.155","3.737","-1.825","C1"
"H4 C6 N1 O3 F1","c1cc2c(c(c1O)F)ONO2","0.263","4.41","0","Multiple Molecules - Open Babel Depiction                        F N O O O H H H H","mol-114762","157.099","1.37","-2.777","4.41","0.263","3.74","-0.407","C1"
"H12 C10 N1 O2 F1","CC(C)(C)c1cc(cc2c1ONO2)F","-0.051","4.417","0","Multiple Molecules - Open Babel Depiction                                   F N O O H H H H H H H H H H H H","mol-115108","197.206","1.377","-3.091","4.417","-0.051","3.747","-0.721","C1"
"H4 C7 S1 N3 O2 F3","c1cc2c(c(c1)N(=O)=O)n(C(F)(F)F)s[nH]2","2.172","4.417","0","Multiple Molecules - Open Babel Depiction                               F F F N N N O O S H H H H","mol-105163","251.186","1.377","-0.868","4.417","2.172","3.747","1.502","C1"
"H7 C8 N2 O3 F1","C/C(=N/c1c(ccc2c1ONO2)F)/O","0.47","4.419","0","Multiple Molecules - Open Babel Depiction                               F N N O O O H H H H H H H","mol-107406","198.151","1.379","-2.57","4.419","0.47","3.749","-0.2","C1"
"H6 C8 N1 O3 F3","COc1cc2c(cc1C(F)(F)F)ONO2","0.397","4.421","0","Multiple Molecules - Open Babel Depiction                              F F F N O O O H H H H H H","mol-115508","221.133","1.381","-2.643","4.421","0.397","3.751","-0.273","C1"
"H14 C12 N1 O5 F3","COCCOCCOc1cc2c(cc1C(F)(F)F)ONO2","0.367","4.423","0","Multiple Molecules - Open Babel Depiction                                            F F F N O O O O O H H H H H H H H H H H H H H","mol-115608","309.238","1.383","-2.673","4.423","0.367","3.753","-0.303","C1"
"H6 C9 N1 O2 F3","C=CN1Oc2ccc(cc2O1)C(F)(F)F","","4.424","0","Multiple Molecules - Open Babel Depiction                               F F F N O O H H H H H H","mol-114625","217.145","1.384","","4.424","","3.754","","C1"
"H5 C7 N2 O2 F3","c1cc(c2c(c1C(F)(F)F)ONO2)N","0.214","4.428","0","Multiple Molecules - Open Babel Depiction                            F F F N N O O H H H H H","mol-115974","206.122","1.388","-2.826","4.428","0.214","3.758","-0.456","C1"
"H5 C7 N2 O2 F3","c1cc2c(c(c1C(F)(F)F)N)ONO2","0.235","4.429","0","Multiple Molecules - Open Babel Depiction                            F F F N N O O H H H H H","mol-106506","206.122","1.389","-2.805","4.429","0.235","3.759","-0.435","C1"
"H10 C10 N1 O4 F3","COCCOc1cc2c(cc1C(F)(F)F)ONO2","0.386","4.43","0","Multiple Molecules - Open Babel Depiction                                     F F F N O O O O H H H H H H H H H H","mol-115400","265.186","1.39","-2.654","4.43","0.386","3.76","-0.284","C1"
"H6 C7 N1 O3 F1","CON1Oc2cccc(c2O1)F","0.187","4.431","0","Multiple Molecules - Open Babel Depiction                           F N O O O H H H H H H","mol-106269","171.126","1.391","-2.853","4.431","0.187","3.761","-0.483","C1"
"H6 C7 N1 O2 F1","Cc1cc(cc2c1ONO2)F","0.011","4.432","0","Multiple Molecules - Open Babel Depiction                          F N O O H H H H H H","mol-97358","155.126","1.392","-3.029","4.432","0.011","3.762","-0.659","C1"
"H18 C14 N1 O6 F3","COCCOCCOCCOc1cc2c(cc1C(F)(F)F)ONO2","0.369","4.432","0","Multiple Molecules - Open Babel Depiction                                                   F F F N O O O O O O H H H H H H H H H H H H H H H H H H","mol-116214","353.291","1.392","-2.671","4.432","0.369","3.762","-0.301","C1"
"H8 C8 N1 O2 F1","CCc1cc(cc2c1ONO2)F","0.005","4.433","0","Multiple Molecules - Open Babel Depiction                             F N O O H H H H H H H H","mol-105859","169.153","1.393","-3.035","4.433","0.005","3.763","-0.665","C1"
"H6 C9 N1 O2 F3","C=CN1Oc2cccc(c2O1)C(F)(F)F","","4.437","0","Multiple Molecules - Open Babel Depiction                               F F F N O O H H H H H H","mol-114467","217.145","1.397","","4.437","","3.767","","C1"
"H8 C13 N1 O2 F3","c1ccc(cc1)N1Oc2ccc(cc2O1)C(F)(F)F","","4.439","0","Multiple Molecules - Open Babel Depiction                                        F F F N O O H H H H H H H H","mol-115258","267.203","1.399","","4.439","","3.769","","C1"
"H8 C8 N1 O2 F1","CCc1c(ccc2c1ONO2)F","-0.011","4.439","0","Multiple Molecules - Open Babel Depiction                             F N O O H H H H H H H H","mol-96432","169.153","1.399","-3.051","4.439","-0.011","3.769","-0.681","C1"
"H15 C11 S1 N2 O3 F1","COCCOCCOc1cccc2c1[nH]sn2F","3.847","4.44","0","Multiple Molecules - Open Babel Depiction                                          F N N O O O S H H H H H H H H H H H H H H H","mol-113043","274.312","1.4","0.807","4.44","3.847","3.77","3.177","C1"
"H7 C8 N2 O3 F1","C[C]([N]N1Oc2ccc(cc2O1)F)O","","4.443","0","Multiple Molecules - Open Babel Depiction                                    . F  . N N O O O H H H H H H H","mol-98198","198.151","1.403","","4.443","","3.773","","C1"
"H6 C7 N1 O2 F1","Cc1c(ccc2c1ONO2)F","-0.003","4.443","0","Multiple Molecules - Open Babel Depiction                          F N O O H H H H H H","mol-106275","155.126","1.403","-3.043","4.443","-0.003","3.773","-0.673","C1"
"H4 C7 N1 O3 F3","c1cc2c(c(c1O)C(F)(F)F)ONO2","0.52","4.447","0","Multiple Molecules - Open Babel Depiction                           F F F N O O O H H H H","mol-96778","207.107","1.407","-2.52","4.447","0.52","3.777","-0.15","C1"
"H6 C8 N1 O2 F1","C=Cc1ccc2c(c1F)ONO2","0.545","4.449","0","Multiple Molecules - Open Babel Depiction                            F N O O H H H H H H","mol-115175","167.137","1.409","-2.495","4.449","0.545","3.779","-0.125","C1"
"H5 C7 N2 O2 F3","c1c(cc2c(c1N)ONO2)C(F)(F)F","0.307","4.449","0","Multiple Molecules - Open Babel Depiction                            F F F N N O O H H H H H","mol-115914","206.122","1.409","-2.733","4.449","0.307","3.779","-0.363","C1"
"H18 C54 N2 O4 F8","c1c2c3c4c5c1c(=O)n(c(=O)c5cc1c4c4c5c3c(cc3c5c(cc4c4c1c1c(cc(c(c1)F)F)c1c4cc(c(c1)F)F)c(=O)n(c3=O)C)c1c2c2cc(c(cc2c2c1cc(c(c2)F)F)F)F)C","2.342","4.45","0","Multiple Molecules - Open Babel Depiction                                                                                                                                     N N O O O O H H H H H H H H H H H H H H H H H H F F F F F F F F","mol-62072","455.359","1.41","-0.698","4.45","2.342","3.78","1.672","C2"
"H5 C7 S1 N2 O1 F3","c1ccc2c(c1)n(C(F)(F)F)sn2O","2.526","4.454","0","Multiple Molecules - Open Babel Depiction                            F F F N N O S H H H H H","mol-94060","222.188","1.414","-0.514","4.454","2.526","3.784","1.856","C1"
"H8 C9 N1 O2 F3","CCN1Oc2cccc(c2O1)C(F)(F)F","0.386","4.458","0","Multiple Molecules - Open Babel Depiction                                F F F N O O H H H H H H H H","mol-96333","219.161","1.418","-2.654","4.458","0.386","3.788","-0.284","C1"