"Formula","Smiles","EA (eV)","IE (eV)","Charge","Svg","Task Id","MW","Oxidation Hydrogen","Reduction Hydrogen","Oxidation Lithium","Reduction Lithium","Oxidation Magnesium","Reduction Magnesium","Point Group"
"H5 C7 N2 O2 F3","c1c(cc2c(c1C(F)(F)F)ONO2)N","0.457","4.029","0","Multiple Molecules - Open Babel Depiction                            F F F N N O O H H H H H","mol-97967","206.122","0.989","-2.583","4.029","0.457","3.359","-0.213","C1"
"H11 C10 S1 N2 O2 F3","COCCOn1c2ccc(cc2[nH]s1)C(F)(F)F","3.909","4.03","0","Multiple Molecules - Open Babel Depiction                                      F F F N N O O S H H H H H H H H H H H","mol-102943","280.267","0.99","0.869","4.03","3.909","3.36","3.239","C1"
"H7 C8 S1 N2 O1 F3","COn1c2ccc(cc2[nH]s1)C(F)(F)F","3.896","4.037","0","Multiple Molecules - Open Babel Depiction                               F F F N N O S H H H H H H H","mol-112782","236.214","0.997","0.856","4.037","3.896","3.367","3.226","C1"
"H11 C9 S1 N2 O2 F1","COCCOn1c2cccc(c2[nH]s1)F","1.771","4.039","0","Multiple Molecules - Open Babel Depiction                                   F N N O O S H H H H H H H H H H H","mol-113195","230.259","0.999","-1.269","4.039","1.771","3.369","1.101","C1"
"H7 C7 S1 N2 O1 F1","COn1c2cccc(c2[nH]s1)F","1.911","4.041","0","Multiple Molecules - Open Babel Depiction                            F N N O S H H H H H H H","mol-104810","186.207","1.001","-1.129","4.041","1.911","3.371","1.241","C1"
"H15 C12 S1 N2 O3 F3","COCCOCCOc1cccc2c1n(C(F)(F)F)s[nH]2","2.811","4.046","0","Multiple Molecules - Open Babel Depiction                                             F F F N N O O O S H H H H H H H H H H H H H H H","mol-114946","324.319","1.006","-0.229","4.046","2.811","3.376","2.141","C1"
"H7 C8 S1 N2 O1 F3","COn1c2cc(ccc2[nH]s1)C(F)(F)F","3.877","4.05","0","Multiple Molecules - Open Babel Depiction                               F F F N N O S H H H H H H H","mol-112922","236.214","1.01","0.837","4.05","3.877","3.38","3.207","C1"
"H9 C9 N2 O2 F3","CN(C)c1cc2c(cc1C(F)(F)F)ONO2","0.347","4.057","0","Multiple Molecules - Open Babel Depiction                                  F F F N N O O H H H H H H H H H","mol-116474","234.175","1.017","-2.693","4.057","0.347","3.387","-0.323","C1"
"H5 C7 S1 N2 O1 F3","c1cc2c(cc1C(F)(F)F)n(O)s[nH]2","2.032","4.068","0","Multiple Molecules - Open Babel Depiction                            F F F N N O S H H H H H","mol-113540","222.188","1.028","-1.008","4.068","2.032","3.398","1.362","C1"
"Si2 H12 C10 N1 O4 F6","[N]([Si](C(F)(F)F)(C(=O)C)C(=O)C)[Si](C(F)(F)F)(C(=O)C)C(=O)C","0.909","4.074","-1","Multiple Molecules - Open Babel Depiction                                            . N Si Si F F F F F F O O H H H H H H O H H H O H H H","mol-162225","380.368","1.034","-2.131","4.074","0.909","3.404","0.239","C1"
"H7 C7 N2 O2 F1","CNc1cc(cc2c1ONO2)F","-0.15","4.078","0","Multiple Molecules - Open Babel Depiction                            F N N O O H H H H H H H","mol-115658","170.141","1.038","-3.19","4.078","-0.15","3.408","-0.82","C1"
"H7 C7 S1 N2 O1 F1","COn1c2c(cccc2[nH]s1)F","","4.083","0","Multiple Molecules - Open Babel Depiction                            F N N O S H H H H H H H","mol-104859","186.207","1.043","","4.083","","3.413","","C1"
"H7 C7 N2 O2 F1","CNc1ccc(c2c1ONO2)F","0.004","4.084","0","Multiple Molecules - Open Babel Depiction                            F N N O O H H H H H H H","mol-97731","170.141","1.044","-3.036","4.084","0.004","3.414","-0.666","C1"
"H7 C7 N2 O2 F1","CNc1ccc2c(c1)ON(F)O2","3.432","4.088","0","Multiple Molecules - Open Babel Depiction                            F N N O O H H H H H H H","mol-95932","170.141","1.048","0.392","4.088","3.432","3.418","2.762","C1"
"H11 C9 S1 N2 O2 F1","COCCOn1c2c(cccc2[nH]s1)F","","4.093","0","Multiple Molecules - Open Babel Depiction                                   F N N O O S H H H H H H H H H H H","mol-113778","230.259","1.053","","4.093","","3.423","","C1"
"H19 C13 S1 N2 O4 F1","COCCOCCOCCOn1c2c(cccc2[nH]s1)F","1.524","4.095","0","Multiple Molecules - Open Babel Depiction                                                 F N N O O O O S H H H H H H H H H H H H H H H H H H H","mol-115056","318.364","1.055","-1.516","4.095","1.524","3.425","0.854","C1"
"H9 C8 N2 O2 F1","CN(C)c1c(ccc2c1ONO2)F","0.015","4.096","0","Multiple Molecules - Open Babel Depiction                               F N N O O H H H H H H H H H","mol-115471","184.168","1.056","-3.025","4.096","0.015","3.426","-0.655","C1"
"H15 C7 N2 O1 F1","CN1CCN(C)[C@@](C1)(F)OC","-1.194","4.098","0","H15 C7 N2 O1 F1 - Open Babel Depiction                                   H H H H H H H H H H H H H H H O N N F   H15 C7 N2 O1 F1","mol-28378","162.205","1.058","-4.234","4.098","-1.194","3.428","-1.864","C1"
"H6 C5 N1 O1 F1","COc1c[nH]cc1F","-0.941","4.099","0","H6 C5 N1 O1 F1 - Open Babel Depiction                    F N O H H H H H H   H6 C5 N1 O1 F1","mol-22403","115.106","1.059","-3.981","4.099","-0.941","3.429","-1.611","Cs"
"H15 C6 N2 O1 F1","CN(CCNC)CC(=O)F.[H].[H]","0.537","4.11","0","Multiple Molecules - Open Babel Depiction                            F N N O H H H H H H H H H H H H  . H H  . H","mol-109814","150.195","1.07","-2.503","4.11","0.537","3.44","-0.133","C1"
"H5 C7 S1 N2 O1 F3","c1cc(c2c(c1)n(O)s[nH]2)C(F)(F)F","4.111","4.115","0","Multiple Molecules - Open Babel Depiction                            F F F N N O S H H H H H","mol-104969","222.188","1.075","1.071","4.115","4.111","3.445","3.441","C1"
"H9 C9 N2 O2 F3","CN(C)c1cc(cc2c1ONO2)C(F)(F)F","0.345","4.13","0","Multiple Molecules - Open Babel Depiction                                  F F F N N O O H H H H H H H H H","mol-116521","234.175","1.09","-2.695","4.13","0.345","3.46","-0.325","C1"
"H5 C7 N2 O2 F3","c1c(c(cc2c1ONO2)N)C(F)(F)F","0.324","4.132","0","Multiple Molecules - Open Babel Depiction                            F F F N N O O H H H H H","mol-115778","206.122","1.092","-2.716","4.132","0.324","3.462","-0.346","C1"
"H5 C8 S1 N2 O2 F3","c1cc(c2c(c1)[nH]sn2C(F)(F)F)C(=O)O","2.643","4.134","0","Multiple Molecules - Open Babel Depiction                               F F F N N O O S H H H H H","mol-104991","250.198","1.094","-0.397","4.134","2.643","3.464","1.973","C1"
"H10 C7 N1 O1 F1","CN(C)[C@@H]1C=COC(=C1)F","-0.528","4.138","0","H10 C7 N1 O1 F1 - Open Babel Depiction                          H H H H H H H H H H O N F   H10 C7 N1 O1 F1","mol-11781","143.159","1.098","-3.568","4.138","-0.528","3.468","-1.198","C1"
"H15 C15 N1 O1 F2","N([C@@H](C(F)F)OC)(c1ccccc1)c1ccccc1","-0.286","4.141","0","Multiple Molecules - Open Babel Depiction                                                   N O F F H H H H H H H H H H H H H H H","mol-19857","263.283","1.101","-3.326","4.141","-0.286","3.471","-0.956","C1"
"H8 C6 N1 O1 F1","CNC1=C[C@@H](C=CO1)F","","4.143","0","H8 C6 N1 O1 F1 - Open Babel Depiction                       O H H H H H H H H N F   H8 C6 N1 O1 F1","mol-9582","129.132","1.103","","4.143","","3.473","","C1"
"H7 C8 N2 O3 F1","C/C(=N/c1cc2c(cc1F)ONO2)/O","0.308","4.144","0","Multiple Molecules - Open Babel Depiction                               F N N O O O H H H H H H H","mol-107089","198.151","1.104","-2.732","4.144","0.308","3.474","-0.362","C1"
"H6 C7 N1 O1 F3","O(C(F)(F)F)c1ccc(cc1)N","-0.335","4.152","0","Multiple Molecules - Open Babel Depiction                          O F F F N H H H H H H","mol-31861","177.124","1.112","-3.375","4.152","-0.335","3.482","-1.005","Cs"
"H9 C9 N2 O2 F3","CN(C)c1ccc(c2c1ONO2)C(F)(F)F","0.243","4.159","0","Multiple Molecules - Open Babel Depiction                                  F F F N N O O H H H H H H H H H","mol-116471","234.175","1.119","-2.797","4.159","0.243","3.489","-0.427","C1"
"H7 C8 N2 O2 F3","CNc1cccc2c1ON(C(F)(F)F)O2","","4.165","0","Multiple Molecules - Open Babel Depiction                               F F F N N O O H H H H H H H","mol-116359","220.149","1.125","","4.165","","3.495","","C1"
"H4 C6 S1 N3 O2 F1","c1cc2c(cc1F)[nH]sn2N(=O)=O","3.496","4.165","0","Multiple Molecules - Open Babel Depiction                            F N N N O O S H H H H","mol-104603","201.178","1.125","0.456","4.165","3.496","3.495","2.826","C1"
"H16 C7 N3 O1 F1","CNCC[NH](C)[CH][CH]C(=N)O.[F]","0.902","4.166","0","Multiple Molecules - Open Babel Depiction                                 .  .  . F N N N O H H H H H H H H H H H H H H H H","mol-117751","177.22","1.126","-2.138","4.166","0.902","3.496","0.232","C1"
"H7 C7 N2 O2 F1","CNc1c(ccc2c1ONO2)F","-0.172","4.174","0","Multiple Molecules - Open Babel Depiction                            F N N O O H H H H H H H","mol-115405","170.141","1.134","-3.212","4.174","-0.172","3.504","-0.842","C1"
"H19 C14 S1 N2 O4 F3","COCCOCCOCCOn1c2c(cccc2[nH]s1)C(F)(F)F","4.001","4.179","0","Multiple Molecules - Open Babel Depiction                                                    F F F N N O O O O S H H H H H H H H H H H H H H H H H H H","mol-114419","368.372","1.139","0.961","4.179","4.001","3.509","3.331","C1"
"H9 C8 N2 O2 F1","CN(C)c1cccc2c1ON(F)O2","3.428","4.18","0","Multiple Molecules - Open Babel Depiction                               F N N O O H H H H H H H H H","mol-106043","184.168","1.14","0.388","4.18","3.428","3.51","2.758","C1"
"H12 C10 N1 O2 F1","CC(C)(C)N1Oc2ccc(cc2O1)F","-0.128","4.181","0","Multiple Molecules - Open Babel Depiction                                   F N O O H H H H H H H H H H H H","mol-114547","197.206","1.141","-3.168","4.181","-0.128","3.511","-0.798","C1"
"H14 C12 N1 O3 F1","C/C(=N/c1c2CCCCc2c(c(c1O)O)F)/O","0.118","4.191","0","Multiple Molecules - Open Babel Depiction                                         F N O O O H H H H H H H H H H H H H H","mol-117065","239.243","1.151","-2.922","4.191","0.118","3.521","-0.552","C1"
"H4 C7 S1 N3 O2 F3","c1cc2c(cc1N(=O)=O)[nH]sn2C(F)(F)F","2.197","4.205","0","Multiple Molecules - Open Babel Depiction                               F F F N N N O O S H H H H","mol-113402","251.186","1.165","-0.843","4.205","2.197","3.535","1.527","C1"
"H6 C6 S1 N1 O1 F1","C/C(=N/c1ccc(F)s1)/O","0.4","4.206","0","Multiple Molecules - Open Babel Depiction                        F N O S H H H H H H","mol-104160","159.181","1.166","-2.64","4.206","0.4","3.536","-0.27","Cs"
"H6 C5 N1 O1 F1","Cn1cc(c(c1)O)F","-0.43","4.209","0","H6 C5 N1 O1 F1 - Open Babel Depiction                    F N O H H H H H H   H6 C5 N1 O1 F1","mol-4051","115.106","1.169","-3.47","4.209","-0.43","3.539","-1.1","Cs"
"H14 C15 N1 O1 F3","N([C@@H](C(F)(F)F)OC)(c1ccccc1)c1ccccc1","-0.275","4.221","0","Multiple Molecules - Open Babel Depiction                                              N O F F F H H H H H H H H H H H H H H","mol-21832","281.273","1.181","-3.315","4.221","-0.275","3.551","-0.945","C1"
"H19 C14 S1 N2 O4 F3","COCCOCCOCCOn1c2ccccc2n(C(F)(F)F)s1","2.659","4.223","0","Multiple Molecules - Open Babel Depiction                                                    F F F N N O O O O S H H H H H H H H H H H H H H H H H H H","mol-114162","368.372","1.183","-0.381","4.223","2.659","3.553","1.989","C1"
"H5 C6 N2 O2 F1","c1c(cc2c(c1N)ONO2)F","-0.077","4.227","0","Multiple Molecules - Open Babel Depiction                         F N N O O H H H H H","mol-115595","156.115","1.187","-3.117","4.227","-0.077","3.557","-0.747","C1"
"H4 C7 S1 N3 O2 F3","c1cc2c(cc1N(=O)=O)n(C(F)(F)F)s[nH]2","2.153","4.227","0","Multiple Molecules - Open Babel Depiction                               F F F N N N O O S H H H H","mol-105281","251.186","1.187","-0.887","4.227","2.153","3.557","1.483","C1"
"H10 C7 N1 O1 F1","CN(C)[C@@H]1C=COC=C1F","-0.593","4.234","0","H10 C7 N1 O1 F1 - Open Babel Depiction                          H H H H H H H H H H O N F   H10 C7 N1 O1 F1","mol-11787","143.159","1.194","-3.633","4.234","-0.593","3.564","-1.263","C1"
"H7 C8 N2 O2 F3","CNc1c(ccc2c1ONO2)C(F)(F)F","0.233","4.242","0","Multiple Molecules - Open Babel Depiction                               F F F N N O O H H H H H H H","mol-107855","220.149","1.202","-2.807","4.242","0.233","3.572","-0.437","C1"
"H7 C8 N2 O3 F1","C/C(=N/c1ccc2c(c1F)ONO2)/O","0.269","4.252","0","Multiple Molecules - Open Babel Depiction                               F N N O O O H H H H H H H","mol-98318","198.151","1.212","-2.771","4.252","0.269","3.582","-0.401","C1"
"H16 C7 N3 O1 F1","CNC[C@H](F)NC.C=CC(=N)O","0.593","4.254","0","Multiple Molecules - Open Babel Depiction                                      F N N N O H H H H H H H H H H H H H H H H","mol-117725","177.22","1.214","-2.447","4.254","0.593","3.584","-0.077","C1"
"H8 C8 S1 N3 O1 F1","C/C(=N/c1ccc2c(c1)n(F)s[nH]2)/O","4.297","4.255","0","Multiple Molecules - Open Babel Depiction                                F N N N O S H H H H H H H H","mol-113825","213.232","1.215","1.257","4.255","4.297","3.585","3.627","C1"
"H4 C6 N1 O3 F1","c1c(c(cc2c1ONO2)O)F","0.091","4.256","0","Multiple Molecules - Open Babel Depiction                        F N O O O H H H H","mol-106731","157.099","1.216","-2.949","4.256","0.091","3.586","-0.579","C1"
"H4 C7 S1 N3 O2 F3","c1cc2c(cc1C(F)(F)F)[nH]sn2N(=O)=O","3.438","4.257","0","Multiple Molecules - Open Babel Depiction                               F F F N N N O O S H H H H","mol-104332","251.186","1.217","0.398","4.257","3.438","3.587","2.768","C1"
"H9 C9 N2 O2 F3","CN(C)c1c(ccc2c1ONO2)C(F)(F)F","0.348","4.257","0","Multiple Molecules - Open Babel Depiction                                  F F F N N O O H H H H H H H H H","mol-116381","234.175","1.217","-2.692","4.257","0.348","3.587","-0.322","C1"
"H7 C8 N2 O3 F1","C/C(=N/c1cc(c2c(c1)ONO2)F)/O","0.329","4.258","0","Multiple Molecules - Open Babel Depiction                               F N N O O O H H H H H H H","mol-107106","198.151","1.218","-2.711","4.258","0.329","3.588","-0.341","C1"
"H6 C7 N1 O3 F1","COc1cc2c(cc1F)ONO2","0.104","4.264","0","Multiple Molecules - Open Babel Depiction                           F N O O O H H H H H H","mol-106661","171.126","1.224","-2.936","4.264","0.104","3.594","-0.566","C1"
"H8 C8 N1 O2 F1","CCN1Oc2ccc(cc2O1)F","-0.082","4.265","0","Multiple Molecules - Open Babel Depiction                             F N O O H H H H H H H H","mol-114227","169.153","1.225","-3.122","4.265","-0.082","3.595","-0.752","C1"
"H5 C6 N2 O2 F1","c1cc2c(cc1N)ON(F)O2","3.692","4.268","0","Multiple Molecules - Open Babel Depiction                         F N N O O H H H H H","mol-105764","156.115","1.228","0.652","4.268","3.692","3.598","3.022","C1"
"H18 C13 N1 O6 F1","COCCOCCOCCOc1cc2c(cc1F)ONO2","0.098","4.271","0","Multiple Molecules - Open Babel Depiction                                                F N O O O O O O H H H H H H H H H H H H H H H H H H","mol-116003","303.284","1.231","-2.942","4.271","0.098","3.601","-0.572","C1"
"H18 C13 N1 O6 F1","COCCOCCOCCOc1cc(c2c(c1)ONO2)F","-0.045","4.272","0","Multiple Molecules - Open Babel Depiction                                                F N O O O O O O H H H H H H H H H H H H H H H H H H","mol-115800","303.284","1.232","-3.085","4.272","-0.045","3.602","-0.715","C1"
"H5 C6 N2 O2 F1","c1cc(c2c(c1F)ONO2)N","-0.13","4.274","0","Multiple Molecules - Open Babel Depiction                         F N N O O H H H H H","mol-106906","156.115","1.234","-3.17","4.274","-0.13","3.604","-0.8","C1"
"H10 C9 N1 O4 F1","COCCOc1cc(c2c(c1)ONO2)F","0.249","4.275","0","Multiple Molecules - Open Babel Depiction                                  F N O O O O H H H H H H H H H H","mol-115069","215.178","1.235","-2.791","4.275","0.249","3.605","-0.421","C1"
"H7 C8 N2 O2 F3","CNc1cc(cc2c1ONO2)C(F)(F)F","0.302","4.275","0","Multiple Molecules - Open Babel Depiction                               F F F N N O O H H H H H H H","mol-109372","220.149","1.235","-2.738","4.275","0.302","3.605","-0.368","C1"
"H22 C54 N2 O4 F4","c1c2c3c4c5c1c(=O)n(c(=O)c5cc1c4c4c5c3c(cc3c5c(cc4c4c1c1c(cc(cc1)F)c1c4ccc(c1)F)c(=O)n(c3=O)C)c1c2c2ccc(cc2c2c1ccc(c2)F)F)C","2.27","4.276","0","Multiple Molecules - Open Babel Depiction                                                                                                                                     N N O O O O H H H H H H H H H H H H H H H H H H H H H H F F F F","mol-62073","419.379","1.236","-0.77","4.276","2.27","3.606","1.6","C2"
"H7 C8 N2 O2 F3","CNc1ccc(c2c1ONO2)C(F)(F)F","0.124","4.277","0","Multiple Molecules - Open Babel Depiction                               F F F N N O O H H H H H H H","mol-98656","220.149","1.237","-2.916","4.277","0.124","3.607","-0.546","C1"
"H10 C9 N1 O4 F1","COCCOc1cc2c(cc1F)ONO2","0.105","4.277","0","Multiple Molecules - Open Babel Depiction                                  F N O O O O H H H H H H H H H H","mol-115489","215.178","1.237","-2.935","4.277","0.105","3.607","-0.565","C1"
"H14 C11 N1 O5 F1","COCCOCCOc1cc2c(cc1F)ONO2","0.099","4.279","0","Multiple Molecules - Open Babel Depiction                                         F N O O O O O H H H H H H H H H H H H H H","mol-115726","259.231","1.239","-2.941","4.279","0.099","3.609","-0.571","C1"
"H14 C11 N1 O5 F1","COCCOCCOc1cc(c2c(c1)ONO2)F","0.257","4.281","0","Multiple Molecules - Open Babel Depiction                                         F N O O O O O H H H H H H H H H H H H H H","mol-115133","259.231","1.241","-2.783","4.281","0.257","3.611","-0.413","C1"
"H12 C10 N1 O2 F1","CC(C)(C)N1Oc2cccc(c2O1)F","","4.282","0","Multiple Molecules - Open Babel Depiction                                   F N O O H H H H H H H H H H H H","mol-114576","197.206","1.242","","4.282","","3.612","","C1"
"H14 C11 N1 O5 F1","COCCOCCON1Oc2ccc(cc2O1)F","","4.288","0","Multiple Molecules - Open Babel Depiction                                         F N O O O O O H H H H H H H H H H H H H H","mol-115842","259.231","1.248","","4.288","","3.618","","C1"
"H10 C9 N1 O4 F1","COCCON1Oc2ccc(cc2O1)F","","4.289","0","Multiple Molecules - Open Babel Depiction                                  F N O O O O H H H H H H H H H H","mol-115511","215.178","1.249","","4.289","","3.619","","C1"
"H13 C6 N2 O1 F1","CN1CCN(C)[C@@](C1)(F)O","-0.835","4.291","0","H13 C6 N2 O1 F1 - Open Babel Depiction                           H H H H H H H H H H H H H O N N F   H13 C6 N2 O1 F1","mol-28171","148.179","1.251","-3.875","4.291","-0.835","3.621","-1.505","C1"
"H6 C7 N1 O2 F1","CN1Oc2ccc(cc2O1)F","-0.073","4.295","0","Multiple Molecules - Open Babel Depiction                          F N O O H H H H H H","mol-115280","155.126","1.255","-3.113","4.295","-0.073","3.625","-0.743","C1"
"H4 C4 N1 O1 F1","c1c(c(c[nH]1)O)F","-0.458","4.295","0","H4 C4 N1 O1 F1 - Open Babel Depiction                 F N O H H H H   H4 C4 N1 O1 F1","mol-4633","101.079","1.255","-3.498","4.295","-0.458","3.625","-1.128","Cs"
"H18 C13 N1 O6 F1","COCCOCCOCCON1Oc2ccc(cc2O1)F","","4.298","0","Multiple Molecules - Open Babel Depiction                                                F N O O O O O O H H H H H H H H H H H H H H H H H H","mol-115865","303.284","1.258","","4.298","","3.628","","C1"
"H12 C11 N1 O2 F3","C1CCc2c(C1)c(c(c(c2N)O)O)C(F)(F)F","-0.23","4.299","0","Multiple Molecules - Open Babel Depiction                                      F F F N O O H H H H H H H H H H H H","mol-116503","247.214","1.259","-3.27","4.299","-0.23","3.629","-0.9","C1"
"H7 C9 N2 O3 F3","C/C(=N/c1ccc2c(c1)ON(C(F)(F)F)O2)/O","0.254","4.302","0","Multiple Molecules - Open Babel Depiction                                  F F F N N O O O H H H H H H H","mol-116328","248.159","1.262","-2.786","4.302","0.254","3.632","-0.416","C1"
"H6 C8 N1 O2 F1","C=CN1Oc2ccc(cc2O1)F","","4.304","0","Multiple Molecules - Open Babel Depiction                            F N O O H H H H H H","mol-95662","167.137","1.264","","4.304","","3.634","","C1"
"H7 C9 N2 O3 F3","C/C(=N/c1ccc2c(c1C(F)(F)F)ONO2)/O","0.497","4.305","0","Multiple Molecules - Open Babel Depiction                                  F F F N N O O O H H H H H H H","mol-116211","248.159","1.265","-2.543","4.305","0.497","3.635","-0.173","C1"