"Formula","Smiles","EA (eV)","IE (eV)","Charge","Svg","Task Id","MW","Oxidation Hydrogen","Reduction Hydrogen","Oxidation Lithium","Reduction Lithium","Oxidation Magnesium","Reduction Magnesium","Point Group"
"H12 C12 N3 O2 F1","Cn1cc/c(=c\2/ccn(C)c(c2)F)/c(c1)N(=O)=O","1.38","2.558","0","Multiple Molecules - Open Babel Depiction                                           F N N N O O H H H H H H H H H H H H","mol-108903","249.241","-0.482","-1.66","2.558","1.38","1.888","0.71","C1"
"H12 C12 N3 O2 F1","Cn1cc/c(=c\2/ccn(C)c(c2)N(=O)=O)/c(c1)F","1.733","2.576","0","Multiple Molecules - Open Babel Depiction                                           F N N N O O H H H H H H H H H H H H","mol-109340","249.241","-0.464","-1.307","2.576","1.733","1.906","1.063","C1"
"H12 C13 N3 O2 F3","Cn1ccc(=c2ccn(cc2N(=O)=O)CC(F)(F)F)cc1","1.479","2.578","0","Multiple Molecules - Open Babel Depiction                                              F F F N N N O O H H H H H H H H H H H H","mol-110738","299.248","-0.462","-1.561","2.578","1.479","1.908","0.809","C1"
"H12 C12 N3 O2 F1","Cn1ccc(=c2ccn(cc2N(=O)=O)CF)cc1","1.566","2.601","0","Multiple Molecules - Open Babel Depiction                                           F N N N O O H H H H H H H H H H H H","mol-108888","249.241","-0.439","-1.474","2.601","1.566","1.931","0.896","C1"
"H12 C12 N3 O2 F1","Cn1cc/c(=c/2\ccn(C)c(c2)N(=O)=O)/c(c1)F","1.669","2.608","0","Multiple Molecules - Open Babel Depiction                                           F N N N O O H H H H H H H H H H H H","mol-103149","249.241","-0.432","-1.371","2.608","1.669","1.938","0.999","C1"
"H12 C13 N3 O2 F3","Cn1cc/c(=c\2/ccn(C)c(c2)N(=O)=O)/c(c1)C(F)(F)F","1.827","2.624","0","Multiple Molecules - Open Babel Depiction                                              F F F N N N O O H H H H H H H H H H H H","mol-110695","299.248","-0.416","-1.213","2.624","1.827","1.954","1.157","C1"
"H12 C12 N3 O2 F1","Cn1ccc(=c2ccn(C)c(c2F)N(=O)=O)cc1","1.616","2.65","0","Multiple Molecules - Open Babel Depiction                                           F N N N O O H H H H H H H H H H H H","mol-102302","249.241","-0.39","-1.424","2.65","1.616","1.98","0.946","C1"
"H12 C13 N3 O2 F3","Cn1ccc(=c2ccn(cc2)CC(F)(F)F)cc1N(=O)=O","1.719","2.653","0","Multiple Molecules - Open Babel Depiction                                              F F F N N N O O H H H H H H H H H H H H","mol-110692","299.248","-0.387","-1.321","2.653","1.719","1.983","1.049","C1"
"H12 C13 N3 O2 F3","Cn1ccc(=c2cc(n(C)cc2C(F)(F)F)N(=O)=O)cc1","1.684","2.699","0","Multiple Molecules - Open Babel Depiction                                              F F F N N N O O H H H H H H H H H H H H","mol-110487","299.248","-0.341","-1.356","2.699","1.684","2.029","1.014","C1"
"H12 C13 N3 O2 F3","Cn1cc/c(=c/2\ccn(C)c(c2)N(=O)=O)/cc1C(F)(F)F","1.822","2.703","0","Multiple Molecules - Open Babel Depiction                                              F F F N N N O O H H H H H H H H H H H H","mol-110527","299.248","-0.337","-1.218","2.703","1.822","2.033","1.152","C1"
"H16 C7 N3 O1 F1","CN1CC[NH](C)[C](C1)C(=N)O.F","-0.397","3.102","0","Multiple Molecules - Open Babel Depiction                                  . F N N N O H H H H H H H H H H H H H H H H","mol-108667","177.22","0.062","-3.437","3.102","-0.397","2.432","-1.067","C1"
"H19 C13 S1 N2 O4 F1","COCCOCCOCCOc1ccc(c2c1[nH]s[nH]2)F","2.279","3.115","0","Multiple Molecules - Open Babel Depiction                                                 F N N O O O O S H H H H H H H H H H H H H H H H H H H","mol-113605","318.364","0.075","-0.761","3.115","2.279","2.445","1.609","C1"
"H15 C11 S1 N2 O3 F1","COCCOCCOc1cc(cc2c1[nH]s[nH]2)F","2.151","3.214","0","Multiple Molecules - Open Babel Depiction                                          F N N O O O S H H H H H H H H H H H H H H H","mol-114072","274.312","0.174","-0.889","3.214","2.151","2.544","1.481","C1"
"H6 C8 S4 N1 O1 F1","C/C(=N/C1=CS/C(=C\2/SC=C(F)S2)/S1)/O","0.406","3.224","0","Multiple Molecules - Open Babel Depiction                               F N O S S S S H H H H H H","mol-67653","279.398","0.184","-2.634","3.224","0.406","2.554","-0.264","C1"
"H6 C8 S4 N1 O1 F1","C/C(=N/C1=C(F)S[C](C2=[S]C=CS2)S1)/O","0.827","3.226","0","Multiple Molecules - Open Babel Depiction                                     . F N O S S S S H H H H H H","mol-66608","279.398","0.186","-2.213","3.226","0.827","2.556","0.157","C1"
"H19 C13 S1 N2 O4 F1","COCCOCCOCCOc1c(ccc2c1[nH]s[nH]2)F","1.995","3.228","0","Multiple Molecules - Open Babel Depiction                                                 F N N O O O O S H H H H H H H H H H H H H H H H H H H","mol-114816","318.364","0.188","-1.045","3.228","1.995","2.558","1.325","C1"
"H15 C11 S1 N2 O3 F1","COCCOCCOc1ccc(c2c1[nH]s[nH]2)F","1.974","3.277","0","Multiple Molecules - Open Babel Depiction                                          F N N O O O S H H H H H H H H H H H H H H H","mol-113617","274.312","0.237","-1.066","3.277","1.974","2.607","1.304","C1"
"H7 C8 S1 N2 O1 F3","COc1ccc2c(c1C(F)(F)F)[nH]s[nH]2","0.473","3.282","0","Multiple Molecules - Open Babel Depiction                               F F F N N O S H H H H H H H","mol-104751","236.214","0.242","-2.567","3.282","0.473","2.612","-0.197","C1"
"H6 C9 S4 N1 O1 F3","C/C(=N/C1=C(C(F)(F)F)S[C](C2=[S]C=CS2)S1)/O","0.952","3.286","0","Multiple Molecules - Open Babel Depiction                                   . F F F N O S S S S H H H H H H","mol-68458","329.405","0.246","-2.088","3.286","0.952","2.616","0.282","C1"
"H15 C12 S1 N2 O3 F3","COCCOCCOc1cc(cc2c1[nH]s[nH]2)C(F)(F)F","","3.289","0","Multiple Molecules - Open Babel Depiction                                             F F F N N O O O S H H H H H H H H H H H H H H H","mol-113408","324.319","0.249","","3.289","","2.619","","C1"
"H4 C6 S1 N3 O2 F1","c1cc2c(cc1F)n(N(=O)=O)s[nH]2","3.652","3.291","0","Multiple Molecules - Open Babel Depiction                            F N N N O O S H H H H","mol-105109","201.178","0.251","0.612","3.291","3.652","2.621","2.982","C1"
"H6 C9 S4 N1 O1 F3","C/C(=N/C1=CSC(=[S]1)[C]1SC=C(C(F)(F)F)S1)/O","0.413","3.31","0","Multiple Molecules - Open Babel Depiction                                        . F F F N O S S S S H H H H H H","mol-66245","329.405","0.27","-2.627","3.31","0.413","2.64","-0.257","C1"
"H7 C8 S1 N2 O1 F1","CC(=O)c1c(ccc2c1[nH]s[nH]2)F","1.075","3.346","0","Multiple Molecules - Open Babel Depiction                              F N N O S H H H H H H H","mol-112593","198.217","0.306","-1.965","3.346","1.075","2.676","0.405","C1"
"H8 C8 S1 N3 O1 F1","C/C(=N/n1c2cc(ccc2[nH]s1)F)/O","2.274","3.348","0","Multiple Molecules - Open Babel Depiction                                F N N N O S H H H H H H H H","mol-105456","213.232","0.308","-0.766","3.348","2.274","2.678","1.604","C1"
"H11 C10 S1 N2 O2 F3","COCCOc1c(ccc2c1[nH]s[nH]2)C(F)(F)F","2.252","3.361","0","Multiple Molecules - Open Babel Depiction                                      F F F N N O O S H H H H H H H H H H H","mol-109724","280.267","0.321","-0.788","3.361","2.252","2.691","1.582","C1"
"H5 C6 N2 O2 F1","c1cc2c(cc1F)ON(N)O2","0.087","3.374","0","Multiple Molecules - Open Babel Depiction                         F N N O O H H H H H","mol-115314","156.115","0.334","-2.953","3.374","0.087","2.704","-0.583","C1"
"H8 C9 S1 N3 O1 F3","C/C(=N/c1ccc2c(c1C(F)(F)F)[nH]s[nH]2)/O","0.583","3.387","0","Multiple Molecules - Open Babel Depiction                                   F F F N N N O S H H H H H H H H","mol-114062","263.24","0.347","-2.457","3.387","0.583","2.717","-0.087","C1"
"H8 C9 S1 N3 O1 F3","C/C(=N/n1c2cc(ccc2[nH]s1)C(F)(F)F)/O","2.335","3.407","0","Multiple Molecules - Open Babel Depiction                                   F F F N N N O S H H H H H H H H","mol-113935","263.24","0.367","-0.705","3.407","2.335","2.737","1.665","C1"
"H8 C8 S1 N3 O1 F1","C/C(=N/n1c2cccc(c2[nH]s1)F)/O","2.278","3.411","0","Multiple Molecules - Open Babel Depiction                                F N N N O S H H H H H H H H","mol-95039","213.232","0.371","-0.762","3.411","2.278","2.741","1.608","C1"
"H8 C9 S1 N3 O1 F3","C/C(=N/n1c2ccc(cc2[nH]s1)C(F)(F)F)/O","2.331","3.411","0","Multiple Molecules - Open Babel Depiction                                   F F F N N N O S H H H H H H H H","mol-114051","263.24","0.371","-0.709","3.411","2.331","2.741","1.661","C1"
"H5 C7 S1 N2 O1 F3","c1c(cc2c(c1C(F)(F)F)[nH]s[nH]2)O","2.682","3.413","0","Multiple Molecules - Open Babel Depiction                            F F F N N O S H H H H H","mol-94777","222.188","0.373","-0.358","3.413","2.682","2.743","2.012","C1"
"H5 C7 S1 N2 O2 F1","c1c(cc2c(c1C(=O)O)[nH]s[nH]2)F","1.034","3.432","0","Multiple Molecules - Open Babel Depiction                            F N N O O S H H H H H","mol-113529","200.19","0.392","-2.006","3.432","1.034","2.762","0.364","C1"
"H7 C7 N2 O2 F1","CN[N]Oc1cccc(c1[O])F","2.911","3.452","0","Multiple Molecules - Open Babel Depiction                           F N  . N O  . O H H H H H H H","mol-114841","170.141","0.412","-0.129","3.452","2.911","2.782","2.241","C1"
"H8 C9 S1 N3 O1 F3","C/C(=N/c1cc(cc2c1[nH]s[nH]2)C(F)(F)F)/O","0.412","3.454","0","Multiple Molecules - Open Babel Depiction                                   F F F N N N O S H H H H H H H H","mol-114483","263.24","0.414","-2.628","3.454","0.412","2.784","-0.258","C1"
"H11 C9 S1 N2 O2 F1","COCCOc1cc2c(cc1F)[nH]s[nH]2","0.019","3.461","0","Multiple Molecules - Open Babel Depiction                                   F N N O O S H H H H H H H H H H H","mol-113384","230.259","0.421","-3.021","3.461","0.019","2.791","-0.651","C1"
"H5 C8 S1 N2 O2 F3","c1cc2c(c(c1C(=O)O)C(F)(F)F)[nH]s[nH]2","1.769","3.465","0","Multiple Molecules - Open Babel Depiction                               F F F N N O O S H H H H H","mol-105116","250.198","0.425","-1.271","3.465","1.769","2.795","1.099","C1"
"H19 C14 S1 N2 O4 F3","COCCOCCOCCOc1ccc(c2c1[nH]s[nH]2)C(F)(F)F","1.843","3.467","0","Multiple Molecules - Open Babel Depiction                                                    F F F N N O O O O S H H H H H H H H H H H H H H H H H H H","mol-114020","368.372","0.427","-1.197","3.467","1.843","2.797","1.173","C1"
"H19 C14 S1 N2 O4 F3","COCCOCCOCCOc1ccc2c(c1)[nH]sn2C(F)(F)F","2.688","3.468","0","Multiple Molecules - Open Babel Depiction                                                    F F F N N O O O O S H H H H H H H H H H H H H H H H H H H","mol-113839","368.372","0.428","-0.352","3.468","2.688","2.798","2.018","C1"
"H6 C5 N1 O2 F1","CNC1=C(F)OC=CO1","0.025","3.471","0","H6 C5 N1 O2 F1 - Open Babel Depiction                     F N O O H H H H H H   H6 C5 N1 O2 F1","mol-39202","131.105","0.431","-3.015","3.471","0.025","2.801","-0.645","C1"
"H10 C7 N1 O1 F1","CN(C)C1=COC(=CC1)F","-0.878","3.484","0","H10 C7 N1 O1 F1 - Open Babel Depiction                          H H H H H H H H H H O N F   H10 C7 N1 O1 F1","mol-11801","143.159","0.444","-3.918","3.484","-0.878","2.814","-1.548","C1"
"H8 C8 S1 N3 O1 F1","C/C(=N/c1ccc2c(c1F)[nH]s[nH]2)/O","2.272","3.486","0","Multiple Molecules - Open Babel Depiction                                F N N N O S H H H H H H H H","mol-105189","213.232","0.446","-0.768","3.486","2.272","2.816","1.602","C1"
"H5 C6 S1 N2 O1 F1","c1c(cc(c2c1[nH]s[nH]2)O)F","2.267","3.49","0","Multiple Molecules - Open Babel Depiction                         F N N O S H H H H H","mol-94365","172.18","0.45","-0.773","3.49","2.267","2.82","1.597","C1"
"H8 C9 S1 N3 O1 F3","C/C(=N/c1ccc(c2c1[nH]s[nH]2)C(F)(F)F)/O","2.127","3.494","0","Multiple Molecules - Open Babel Depiction                                   F F F N N N O S H H H H H H H H","mol-114316","263.24","0.454","-0.913","3.494","2.127","2.824","1.457","C1"
"H8 C6 N1 O1 F1","CNC1=COC(=CC1)F","-0.795","3.5","0","H8 C6 N1 O1 F1 - Open Babel Depiction                       O H H H H H H H H N F   H8 C6 N1 O1 F1","mol-9570","129.132","0.46","-3.835","3.5","-0.795","2.83","-1.465","C1"
"H8 C9 S1 N3 O1 F3","C/C(=N/c1cc(c2c(c1)[nH]s[nH]2)C(F)(F)F)/O","0.491","3.504","0","Multiple Molecules - Open Babel Depiction                                   F F F N N N O S H H H H H H H H","mol-114374","263.24","0.464","-2.549","3.504","0.491","2.834","-0.179","C1"
"H8 C9 S1 N3 O1 F3","C/C(=N/c1cc2c(cc1C(F)(F)F)[nH]s[nH]2)/O","2.293","3.508","0","Multiple Molecules - Open Babel Depiction                                   F F F N N N O S H H H H H H H H","mol-113951","263.24","0.468","-0.747","3.508","2.293","2.838","1.623","C1"
"H15 C12 S1 N2 O3 F3","COCCOCCOc1cc2c(cc1C(F)(F)F)[nH]s[nH]2","2.358","3.508","0","Multiple Molecules - Open Babel Depiction                                             F F F N N O O O S H H H H H H H H H H H H H H H","mol-116320","324.319","0.468","-0.682","3.508","2.358","2.838","1.688","C1"
"H5 C8 S1 N2 O2 F3","c1c(cc2c(c1C(=O)O)[nH]s[nH]2)C(F)(F)F","1.113","3.508","0","Multiple Molecules - Open Babel Depiction                               F F F N N O O S H H H H H","mol-105362","250.198","0.468","-1.927","3.508","1.113","2.838","0.443","C1"
"H11 C10 S1 N2 O2 F3","COCCOc1cc2c(cc1C(F)(F)F)[nH]s[nH]2","2.372","3.51","0","Multiple Molecules - Open Babel Depiction                                      F F F N N O O S H H H H H H H H H H H","mol-113359","280.267","0.47","-0.668","3.51","2.372","2.84","1.702","C1"
"H7 C7 S1 N2 O1 F1","COc1ccc2c(c1F)[nH]s[nH]2","2.315","3.511","0","Multiple Molecules - Open Babel Depiction                            F N N O S H H H H H H H","mol-113002","186.207","0.471","-0.725","3.511","2.315","2.841","1.645","C1"
"H19 C14 S1 N2 O4 F3","COCCOCCOCCOc1cc2c(cc1C(F)(F)F)[nH]s[nH]2","2.34","3.512","0","Multiple Molecules - Open Babel Depiction                                                    F F F N N O O O O S H H H H H H H H H H H H H H H H H H H","mol-113812","368.372","0.472","-0.7","3.512","2.34","2.842","1.67","C1"
"H8 C6 N1 O2 F1","CN(C)C1=COC=C(F)O1","-0.125","3.516","0","H8 C6 N1 O2 F1 - Open Babel Depiction                        O H H H H H H H H O N F   H8 C6 N1 O2 F1","mol-39292","145.132","0.476","-3.165","3.516","-0.125","2.846","-0.795","C1"
"H8 C8 S1 N3 O1 F1","C/C(=N/n1c2c(cccc2[nH]s1)F)/O","2.054","3.516","0","Multiple Molecules - Open Babel Depiction                                F N N N O S H H H H H H H H","mol-95415","213.232","0.476","-0.986","3.516","2.054","2.846","1.384","C1"
"H5 C6 S1 N2 O1 F1","c1c(cc2c(c1F)[nH]s[nH]2)O","2.343","3.517","0","Multiple Molecules - Open Babel Depiction                         F N N O S H H H H H","mol-113471","172.18","0.477","-0.697","3.517","2.343","2.847","1.673","C1"
"H8 C6 N1 O1 F1","CNC1=COC=C(C1)F","-0.737","3.518","0","H8 C6 N1 O1 F1 - Open Babel Depiction                       O H H H H H H H H N F   H8 C6 N1 O1 F1","mol-9561","129.132","0.478","-3.777","3.518","-0.737","2.848","-1.407","C1"
"H5 C6 S1 N2 O1 F1","c1cc2c(c(c1F)O)[nH]s[nH]2","2.496","3.521","0","Multiple Molecules - Open Babel Depiction                         F N N O S H H H H H","mol-104534","172.18","0.481","-0.544","3.521","2.496","2.851","1.826","C1"
"H7 C7 S1 N2 O1 F1","COc1ccc(c2c1[nH]s[nH]2)F","","3.531","0","Multiple Molecules - Open Babel Depiction                            F N N O S H H H H H H H","mol-104420","186.207","0.491","","3.531","","2.861","","C1"
"H19 C14 S1 N2 O4 F3","COCCOCCOCCOc1cc(c2c(c1)[nH]s[nH]2)C(F)(F)F","","3.534","0","Multiple Molecules - Open Babel Depiction                                                    F F F N N O O O O S H H H H H H H H H H H H H H H H H H H","mol-114494","368.372","0.494","","3.534","","2.864","","C1"
"H10 C7 N1 O1 F1","CN(C)C1=C(CC=CO1)F","-0.701","3.54","0","H10 C7 N1 O1 F1 - Open Babel Depiction                          H H H H H H H H H H O N F   H10 C7 N1 O1 F1","mol-11808","143.159","0.5","-3.741","3.54","-0.701","2.87","-1.371","C1"
"H15 C11 S1 N2 O3 F1","COCCOCCOc1cc(c2c(c1)[nH]s[nH]2)F","2.013","3.54","0","Multiple Molecules - Open Babel Depiction                                          F N N O O O S H H H H H H H H H H H H H H H","mol-113331","274.312","0.5","-1.027","3.54","2.013","2.87","1.343","C1"
"H19 C13 S1 N2 O4 F1","COCCOCCOCCOc1ccc2c(c1F)[nH]s[nH]2","2.3","3.542","0","Multiple Molecules - Open Babel Depiction                                                 F N N O O O O S H H H H H H H H H H H H H H H H H H H","mol-113610","318.364","0.502","-0.74","3.542","2.3","2.872","1.63","C1"
"H8 C9 S1 N3 O1 F3","C/C(=N/n1c2c(cccc2[nH]s1)C(F)(F)F)/O","0.425","3.543","0","Multiple Molecules - Open Babel Depiction                                   F F F N N N O S H H H H H H H H","mol-114129","263.24","0.503","-2.615","3.543","0.425","2.873","-0.245","C1"
"H8 C6 N1 O1 F1","CNC1=C(CC=CO1)F","-0.402","3.564","0","H8 C6 N1 O1 F1 - Open Babel Depiction                       O H H H H H H H H N F   H8 C6 N1 O1 F1","mol-9605","129.132","0.524","-3.442","3.564","-0.402","2.894","-1.072","C1"
"H7 C8 S1 N2 O1 F3","COc1cc(c2c(c1)[nH]s[nH]2)C(F)(F)F","0.439","3.564","0","Multiple Molecules - Open Babel Depiction                               F F F N N O S H H H H H H H","mol-113632","236.214","0.524","-2.601","3.564","0.439","2.894","-0.231","C1"
"H5 C7 S1 N2 O1 F3","c1c(cc(c2c1[nH]s[nH]2)O)C(F)(F)F","","3.565","0","Multiple Molecules - Open Babel Depiction                            F F F N N O S H H H H H","mol-104932","222.188","0.525","","3.565","","2.895","","C1"
"H6 C5 N1 O2 F1","CNC1=COC=C(F)O1","-0.273","3.575","0","H6 C5 N1 O2 F1 - Open Babel Depiction                     F N O O H H H H H H   H6 C5 N1 O2 F1","mol-39183","131.105","0.535","-3.313","3.575","-0.273","2.905","-0.943","C1"
"H14 C11 N1 O2 F1","CNc1c2CCCCc2c(c(c1O)O)F","-0.323","3.579","0","Multiple Molecules - Open Babel Depiction                                      F N O O H H H H H H H H H H H H H H","mol-116493","211.233","0.539","-3.363","3.579","-0.323","2.909","-0.993","C1"
"H9 C8 N2 O2 F1","CN(C)[N]Oc1c(cccc1[O])F","2.401","3.584","0","Multiple Molecules - Open Babel Depiction                              F N  . N  . O O H H H H H H H H H","mol-106057","184.168","0.544","-0.639","3.584","2.401","2.914","1.731","C1"
"H6 C5 N1 O1 F1","C1=COC(=C(C1)N)F","-0.698","3.593","0","H6 C5 N1 O1 F1 - Open Babel Depiction                    F N O H H H H H H   H6 C5 N1 O1 F1","mol-8505","115.106","0.553","-3.738","3.593","-0.698","2.923","-1.368","C1"
"H9 C8 N2 O2 F1","CN(C)[N]Oc1ccc(cc1[O])F","2.371","3.596","0","Multiple Molecules - Open Babel Depiction                              F N  . N O  . O H H H H H H H H H","mol-115463","184.168","0.556","-0.669","3.596","2.371","2.926","1.701","C1"
"H4 C6 S1 N3 O2 F1","c1cc2c(c(c1F)N(=O)=O)[nH]s[nH]2","2.07","3.607","0","Multiple Molecules - Open Babel Depiction                            F N N N O O S H H H H","mol-94412","201.178","0.567","-0.97","3.607","2.07","2.937","1.4","C1"
"H4 C4 N1 O2 F1","C1=COC(=C(F)O1)N","0.07","3.608","0","H4 C4 N1 O2 F1 - Open Babel Depiction                  F N O O H H H H   H4 C4 N1 O2 F1","mol-39448","117.078","0.568","-2.97","3.608","0.07","2.938","-0.6","C1"
"H4 C7 S1 N3 O2 F3","c1cc(c(c2c1[nH]s[nH]2)C(F)(F)F)N(=O)=O","2.016","3.619","0","Multiple Molecules - Open Babel Depiction                               F F F N N N O O S H H H H","mol-113399","251.186","0.579","-1.024","3.619","2.016","2.949","1.346","C1"
"H6 C5 N1 O1 F1","C1C(=COC=C1N)F","-0.723","3.63","0","H6 C5 N1 O1 F1 - Open Babel Depiction                    F N O H H H H H H   H6 C5 N1 O1 F1","mol-4086","115.106","0.59","-3.763","3.63","-0.723","2.96","-1.393","C1"
"H5 C7 S1 N2 O1 F3","c1cc2c(c(c1C(F)(F)F)O)[nH]s[nH]2","2.58","3.639","0","Multiple Molecules - Open Babel Depiction                            F F F N N O S H H H H H","mol-104713","222.188","0.599","-0.46","3.639","2.58","2.969","1.91","C1"
"H4 C6 S1 N3 O2 F1","c1c(cc(c2c1[nH]s[nH]2)N(=O)=O)F","2.115","3.643","0","Multiple Molecules - Open Babel Depiction                            F N N N O O S H H H H","mol-113480","201.178","0.603","-0.925","3.643","2.115","2.973","1.445","C1"